ITEM: TIMESTEP
30000
ITEM: NUMBER OF ENTRIES
000                  //Doesn't matter for now 
ITEM: BOX BOUNDS pp pp pp
0.0 0.5     //Doesn't matter for now 
0.0 0.5
0.0 0.5
ITEM: ENTRIES c_3[1] c_3[2] c_3[3] c_3[4] c_3[5] c_3[6] c_3[7] c_3[8] c_3[9] c_3[10] c_3[11] c_3[12] c_3[13] 
0 0 0 2 0 0 1 2 0 -2 0 0 0
2 0 0 4 0 0 2 3 0 -2 0 0 0
2 0 0 2 2 0 2 4 0 0 -2 0 0
4 0 0 4 2 0 3 5 0 0 -2 0 0
2 2 0 4 2 0 4 5 0 -2 0 0 0
2 2 0 2 4 0 4 8 0 0 -2 0 0
4 2 0 6 2 0 5 6 0 0 0 0 0
4 2 0 4 4 0 5 9 0 0 -2 0 0
0 4 0 2 4 0 7 8 0 -2 0 0 0
2 4 0 4 4 0 8 9 0 -2 0 0 0
