ITEM: TIMESTEP
0
ITEM: NUMBER OF ATOMS
415
ITEM: BOX BOUNDS pp pp pp
0 0.146059
0 0.146059
0 0.0055
ITEM: ATOMS id type x y z ix iy iz vx vy vz fx fy fz omegax omegay omegaz radius 
1 1 0.0366713 0.110155 0.00285536 0 0 0 0 0 0 0 0 0 0 0 0 0.0025 
2 1 0.0175101 0.129404 0.00271246 0 0 0 0 0 0 0 0 0 0 0 0 0.0025 
3 1 0.0822938 0.076558 0.00279231 0 0 0 0 0 0 0 0 0 0 0 0 0.0025 
4 1 0.112101 0.057578 0.00266083 0 0 0 0 0 0 0 0 0 0 0 0 0.0025 
5 1 0.0323493 0.0624883 0.00278827 0 0 0 0 0 0 0 0 0 0 0 0 0.0025 
6 1 0.0338255 0.0430214 0.00252876 0 0 0 0 0 0 0 0 0 0 0 0 0.0025 
7 1 0.0224486 0.0217822 0.0025951 0 0 0 0 0 0 0 0 0 0 0 0 0.0025 
8 1 0.0833871 0.0467327 0.00286502 0 0 0 0 0 0 0 0 0 0 0 0 0.0025 
9 1 0.049198 0.0282827 0.0026254 0 0 0 0 0 0 0 0 0 0 0 0 0.0025 
10 1 0.122036 0.0918007 0.00263632 0 0 0 0 0 0 0 0 0 0 0 0 0.0025 
11 1 0.0764259 0.0448639 0.0026273 0 0 0 0 0 0 0 0 0 0 0 0 0.0025 
12 1 0.00262748 0.0500696 0.00270611 0 0 0 0 0 0 0 0 0 0 0 0 0.0025 
13 1 0.0957326 0.133402 0.00277351 0 0 0 0 0 0 0 0 0 0 0 0 0.0025 
14 1 0.0763344 0.112406 0.00275284 0 0 0 0 0 0 0 0 0 0 0 0 0.0025 
15 1 0.10694 0.0796255 0.00265928 0 0 0 0 0 0 0 0 0 0 0 0 0.0025 
16 1 0.0400934 0.0779051 0.00281331 0 0 0 0 0 0 0 0 0 0 0 0 0.0025 
17 1 0.0762168 0.0346091 0.00252304 0 0 0 0 0 0 0 0 0 0 0 0 0.0025 
18 1 0.104262 0.0547799 0.00278275 0 0 0 0 0 0 0 0 0 0 0 0 0.0025 
19 1 0.0848365 0.015282 0.00273979 0 0 0 0 0 0 0 0 0 0 0 0 0.0025 
20 1 0.0697538 0.0801468 0.00258145 0 0 0 0 0 0 0 0 0 0 0 0 0.0025 
21 1 0.0661099 0.0356873 0.0029201 0 0 0 0 0 0 0 0 0 0 0 0 0.0025 
22 1 0.100197 0.099031 0.00253726 0 0 0 0 0 0 0 0 0 0 0 0 0.0025 
23 1 0.137156 0.0701357 0.00272485 0 0 0 0 0 0 0 0 0 0 0 0 0.0025 
24 1 0.126498 0.014291 0.00254829 0 0 0 0 0 0 0 0 0 0 0 0 0.0025 
25 1 0.108093 0.0341919 0.00250764 0 0 0 0 0 0 0 0 0 0 0 0 0.0025 
26 1 0.0426352 0.00310717 0.00297806 0 0 0 0 0 0 0 0 0 0 0 0 0.0025 
27 1 0.0411098 0.0723087 0.00295005 0 0 0 0 0 0 0 0 0 0 0 0 0.0025 
28 1 0.0721097 0.0928872 0.00271556 0 0 0 0 0 0 0 0 0 0 0 0 0.0025 
29 1 0.125298 0.00719147 0.0028586 0 0 0 0 0 0 0 0 0 0 0 0 0.0025 
30 1 0.13624 0.00988528 0.00272846 0 0 0 0 0 0 0 0 0 0 0 0 0.0025 
31 1 0.0983149 0.0099463 0.00284515 0 0 0 0 0 0 0 0 0 0 0 0 0.0025 
32 1 0.0987672 0.0156473 0.00289255 0 0 0 0 0 0 0 0 0 0 0 0 0.0025 
33 1 0.103916 0.086413 0.00285024 0 0 0 0 0 0 0 0 0 0 0 0 0.0025 
34 1 0.0483249 0.106731 0.00289709 0 0 0 0 0 0 0 0 0 0 0 0 0.0025 
35 1 0.0631619 0.00255898 0.00253515 0 0 0 0 0 0 0 0 0 0 0 0 0.0025 
36 1 0.141593 0.00767799 0.00277236 0 0 0 0 0 0 0 0 0 0 0 0 0.0025 
37 1 0.0246664 0.0520599 0.00280216 0 0 0 0 0 0 0 0 0 0 0 0 0.0025 
38 1 0.03194 0.0478621 0.00259517 0 0 0 0 0 0 0 0 0 0 0 0 0.0025 
39 1 0.0454995 0.0886984 0.00273417 0 0 0 0 0 0 0 0 0 0 0 0 0.0025 
40 1 0.0943298 0.0724992 0.00250782 0 0 0 0 0 0 0 0 0 0 0 0 0.0025 
41 1 0.0283358 0.0868126 0.00271681 0 0 0 0 0 0 0 0 0 0 0 0 0.0025 
42 1 0.0238622 0.118828 0.00252854 0 0 0 0 0 0 0 0 0 0 0 0 0.0025 
43 1 0.0396886 0.139511 0.0025763 0 0 0 0 0 0 0 0 0 0 0 0 0.0025 
44 1 0.101997 0.118646 0.0029016 0 0 0 0 0 0 0 0 0 0 0 0 0.0025 
45 1 0.0253547 0.081529 0.00280611 0 0 0 0 0 0 0 0 0 0 0 0 0.0025 
46 1 0.0179675 0.0755933 0.00269945 0 0 0 0 0 0 0 0 0 0 0 0 0.0025 
47 1 0.00436305 0.00792097 0.00255125 0 0 0 0 0 0 0 0 0 0 0 0 0.0025 
48 1 0.107577 0.124259 0.00256386 0 0 0 0 0 0 0 0 0 0 0 0 0.0025 
49 1 0.0500922 0.0133703 0.00284293 0 0 0 0 0 0 0 0 0 0 0 0 0.0025 
50 1 0.0618525 0.051095 0.00267835 0 0 0 0 0 0 0 0 0 0 0 0 0.0025 
51 1 0.0362237 0.0362695 0.00287295 0 0 0 0 0 0 0 0 0 0 0 0 0.0025 
52 1 0.0843482 0.133593 0.00262597 0 0 0 0 0 0 0 0 0 0 0 0 0.0025 
53 1 0.103775 0.0446124 0.00295043 0 0 0 0 0 0 0 0 0 0 0 0 0.0025 
54 1 0.0103876 0.0435782 0.00291759 0 0 0 0 0 0 0 0 0 0 0 0 0.0025 
55 1 0.00769586 0.0818329 0.00265769 0 0 0 0 0 0 0 0 0 0 0 0 0.0025 
56 1 0.0622285 0.0891764 0.0027676 0 0 0 0 0 0 0 0 0 0 0 0 0.0025 
57 1 0.0367579 0.105001 0.00251014 0 0 0 0 0 0 0 0 0 0 0 0 0.0025 
58 1 0.120303 0.0268576 0.00274531 0 0 0 0 0 0 0 0 0 0 0 0 0.0025 
59 1 0.0534107 0.138972 0.0025099 0 0 0 0 0 0 0 0 0 0 0 0 0.0025 
60 1 0.111183 0.114839 0.00252848 0 0 0 0 0 0 0 0 0 0 0 0 0.0025 
61 1 0.0643225 0.0823456 0.00262511 0 0 0 0 0 0 0 0 0 0 0 0 0.0025 
62 1 0.0852248 0.114918 0.00296446 0 0 0 0 0 0 0 0 0 0 0 0 0.0025 
63 1 0.137979 0.0263796 0.00268398 0 0 0 0 0 0 0 0 0 0 0 0 0.0025 
64 1 0.0551256 0.0412924 0.00274104 0 0 0 0 0 0 0 0 0 0 0 0 0.0025 
65 1 0.0260159 0.0944258 0.0029846 0 0 0 0 0 0 0 0 0 0 0 0 0.0025 
66 1 0.138969 0.0197138 0.00253042 0 0 0 0 0 0 0 0 0 0 0 0 0.0025 
67 1 0.0157985 0.136313 0.00296642 0 0 0 0 0 0 0 0 0 0 0 0 0.0025 
68 1 0.0699581 0.00838206 0.0028626 0 0 0 0 0 0 0 0 0 0 0 0 0.0025 
69 1 0.0832691 0.108617 0.00274051 0 0 0 0 0 0 0 0 0 0 0 0 0.0025 
70 1 0.0388737 0.0275527 0.00267022 0 0 0 0 0 0 0 0 0 0 0 0 0.0025 
71 1 0.0656315 0.027631 0.00269232 0 0 0 0 0 0 0 0 0 0 0 0 0.0025 
72 1 0.0527875 0.034601 0.00290163 0 0 0 0 0 0 0 0 0 0 0 0 0.0025 
73 1 0.080956 0.0852045 0.00251713 0 0 0 0 0 0 0 0 0 0 0 0 0.0025 
74 1 0.107734 0.138225 0.00252124 0 0 0 0 0 0 0 0 0 0 0 0 0.0025 
75 1 0.133947 0.0337141 0.00260287 0 0 0 0 0 0 0 0 0 0 0 0 0.0025 
76 1 0.122247 0.141336 0.00292215 0 0 0 0 0 0 0 0 0 0 0 0 0.0025 
77 1 0.13752 0.0506867 0.00275027 0 0 0 0 0 0 0 0 0 0 0 0 0.0025 
78 1 0.0819822 0.0976063 0.0028754 0 0 0 0 0 0 0 0 0 0 0 0 0.0025 
79 1 0.0515646 0.075498 0.00290228 0 0 0 0 0 0 0 0 0 0 0 0 0.0025 
80 1 0.0767359 0.143013 0.00250855 0 0 0 0 0 0 0 0 0 0 0 0 0.0025 
81 1 0.0343085 0.127179 0.00273842 0 0 0 0 0 0 0 0 0 0 0 0 0.0025 
82 1 0.00824696 0.142448 0.00250011 0 0 0 0 0 0 0 0 0 0 0 0 0.0025 
83 1 0.00799429 0.131568 0.00255134 0 0 0 0 0 0 0 0 0 0 0 0 0.0025 
84 1 0.0637338 0.12047 0.00251047 0 0 0 0 0 0 0 0 0 0 0 0 0.0025 
85 1 0.11223 0.0398671 0.00274438 0 0 0 0 0 0 0 0 0 0 0 0 0.0025 
86 1 0.132656 0.099848 0.00263528 0 0 0 0 0 0 0 0 0 0 0 0 0.0025 
87 1 0.128074 0.0614107 0.00281173 0 0 0 0 0 0 0 0 0 0 0 0 0.0025 
88 1 0.0539703 0.0507213 0.00264125 0 0 0 0 0 0 0 0 0 0 0 0 0.0025 
89 1 0.0739248 0.073942 0.00265607 0 0 0 0 0 0 0 0 0 0 0 0 0.0025 
90 1 0.0951582 0.12087 0.00260423 0 0 0 0 0 0 0 0 0 0 0 0 0.0025 
91 1 0.129327 0.0859176 0.00280834 0 0 0 0 0 0 0 0 0 0 0 0 0.0025 
92 1 0.0343186 0.00446232 0.00262534 0 0 0 0 0 0 0 0 0 0 0 0 0.0025 
93 1 0.0180613 0.0443864 0.00290465 0 0 0 0 0 0 0 0 0 0 0 0 0.0025 
94 1 0.0826822 0.0309334 0.00271401 0 0 0 0 0 0 0 0 0 0 0 0 0.0025 
95 1 0.0416641 0.0407532 0.00254171 0 0 0 0 0 0 0 0 0 0 0 0 0.0025 
96 1 0.0690998 0.0425174 0.00254717 0 0 0 0 0 0 0 0 0 0 0 0 0.0025 
97 1 0.00501981 0.0916534 0.00286346 0 0 0 0 0 0 0 0 0 0 0 0 0.0025 
98 1 0.0924052 0.00529696 0.00285596 0 0 0 0 0 0 0 0 0 0 0 0 0.0025 
99 1 0.0349573 0.0761844 0.00281023 0 0 0 0 0 0 0 0 0 0 0 0 0.0025 
100 1 0.0904718 0.0819892 0.00259704 0 0 0 0 0 0 0 0 0 0 0 0 0.0025 
101 1 0.0123272 0.0713437 0.00275345 0 0 0 0 0 0 0 0 0 0 0 0 0.0025 
102 1 0.121867 0.0322801 0.00255938 0 0 0 0 0 0 0 0 0 0 0 0 0.0025 
103 1 0.0458255 0.0185496 0.00272255 0 0 0 0 0 0 0 0 0 0 0 0 0.0025 
104 1 0.0503589 0.113779 0.00288724 0 0 0 0 0 0 0 0 0 0 0 0 0.0025 
105 1 0.117059 0.13985 0.00273692 0 0 0 0 0 0 0 0 0 0 0 0 0.0025 
106 1 0.0068532 0.0869865 0.00277163 0 0 0 0 0 0 0 0 0 0 0 0 0.0025 
107 1 0.139711 0.0779745 0.00275786 0 0 0 0 0 0 0 0 0 0 0 0 0.0025 
108 1 0.0774613 0.0656685 0.00250204 0 0 0 0 0 0 0 0 0 0 0 0 0.0025 
109 1 0.097751 0.0256412 0.0028981 0 0 0 0 0 0 0 0 0 0 0 0 0.0025 
110 1 0.0693273 0.0680324 0.00256936 0 0 0 0 0 0 0 0 0 0 0 0 0.0025 
111 1 0.0203375 0.0326544 0.0029052 0 0 0 0 0 0 0 0 0 0 0 0 0.0025 
112 1 0.0889351 0.106783 0.00280114 0 0 0 0 0 0 0 0 0 0 0 0 0.0025 
113 1 0.0918164 0.0416142 0.00295449 0 0 0 0 0 0 0 0 0 0 0 0 0.0025 
114 1 0.0983654 0.128309 0.00267627 0 0 0 0 0 0 0 0 0 0 0 0 0.0025 
115 1 0.0192161 0.0275615 0.00273224 0 0 0 0 0 0 0 0 0 0 0 0 0.0025 
116 1 0.0831259 0.03925 0.00265502 0 0 0 0 0 0 0 0 0 0 0 0 0.0025 
117 1 0.0106491 0.0563959 0.00250531 0 0 0 0 0 0 0 0 0 0 0 0 0.0025 
118 1 0.0338224 0.135817 0.00251094 0 0 0 0 0 0 0 0 0 0 0 0 0.0025 
119 1 0.0952723 0.138772 0.00253731 0 0 0 0 0 0 0 0 0 0 0 0 0.0025 
120 1 0.0688725 0.0200877 0.00263767 0 0 0 0 0 0 0 0 0 0 0 0 0.0025 
121 1 0.00397336 0.0311417 0.00257945 0 0 0 0 0 0 0 0 0 0 0 0 0.0025 
122 1 0.118734 0.0972672 0.00279915 0 0 0 0 0 0 0 0 0 0 0 0 0.0025 
123 1 0.120559 0.104349 0.00252902 0 0 0 0 0 0 0 0 0 0 0 0 0.0025 
124 1 0.120815 0.0138308 0.00275193 0 0 0 0 0 0 0 0 0 0 0 0 0.0025 
125 1 0.0545534 0.0640874 0.00281268 0 0 0 0 0 0 0 0 0 0 0 0 0.0025 
126 1 0.0486022 0.0929654 0.00272871 0 0 0 0 0 0 0 0 0 0 0 0 0.0025 
127 1 0.070574 0.135383 0.00288769 0 0 0 0 0 0 0 0 0 0 0 0 0.0025 
128 1 0.112649 0.0658512 0.00259245 0 0 0 0 0 0 0 0 0 0 0 0 0.0025 
129 1 0.124842 0.0808686 0.00284531 0 0 0 0 0 0 0 0 0 0 0 0 0.0025 
130 1 0.00797934 0.0262232 0.00269319 0 0 0 0 0 0 0 0 0 0 0 0 0.0025 
131 1 0.0375377 0.0653647 0.00269823 0 0 0 0 0 0 0 0 0 0 0 0 0.0025 
132 1 0.0196806 0.0941126 0.00276503 0 0 0 0 0 0 0 0 0 0 0 0 0.0025 
133 1 0.0620646 0.110285 0.00278905 0 0 0 0 0 0 0 0 0 0 0 0 0.0025 
134 1 0.0606956 0.0325325 0.00276656 0 0 0 0 0 0 0 0 0 0 0 0 0.0025 
135 1 0.0131807 0.101821 0.00269815 0 0 0 0 0 0 0 0 0 0 0 0 0.0025 
136 1 0.124927 0.0457159 0.00279614 0 0 0 0 0 0 0 0 0 0 0 0 0.0025 
137 1 0.0470622 0.0628007 0.00252703 0 0 0 0 0 0 0 0 0 0 0 0 0.0025 
138 1 0.0294066 0.118698 0.0028035 0 0 0 0 0 0 0 0 0 0 0 0 0.0025 
139 1 0.085783 0.0037327 0.00286127 0 0 0 0 0 0 0 0 0 0 0 0 0.0025 
140 1 0.0498906 0.131142 0.00256926 0 0 0 0 0 0 0 0 0 0 0 0 0.0025 
141 1 0.0279494 0.0188366 0.00288033 0 0 0 0 0 0 0 0 0 0 0 0 0.0025 
142 1 0.0922868 0.0600548 0.00269531 0 0 0 0 0 0 0 0 0 0 0 0 0.0025 
143 1 0.0542937 0.0808421 0.00257915 0 0 0 0 0 0 0 0 0 0 0 0 0.0025 
144 1 0.0130806 0.026997 0.00293803 0 0 0 0 0 0 0 0 0 0 0 0 0.0025 
145 1 0.142752 0.0648606 0.00270709 0 0 0 0 0 0 0 0 0 0 0 0 0.0025 
146 1 0.102251 0.137504 0.00286259 0 0 0 0 0 0 0 0 0 0 0 0 0.0025 
147 1 0.0675917 0.110755 0.00290006 0 0 0 0 0 0 0 0 0 0 0 0 0.0025 
148 1 0.0593458 0.131464 0.00265878 0 0 0 0 0 0 0 0 0 0 0 0 0.0025 
149 1 0.087768 0.0635662 0.00297286 0 0 0 0 0 0 0 0 0 0 0 0 0.0025 
150 1 0.03197 0.113092 0.00262683 0 0 0 0 0 0 0 0 0 0 0 0 0.0025 
151 1 0.0579377 0.126476 0.0027317 0 0 0 0 0 0 0 0 0 0 0 0 0.0025 
152 1 0.113282 0.0447775 0.00291723 0 0 0 0 0 0 0 0 0 0 0 0 0.0025 
153 1 0.0539746 0.122417 0.00291665 0 0 0 0 0 0 0 0 0 0 0 0 0.0025 
154 1 0.108233 0.0505217 0.00281997 0 0 0 0 0 0 0 0 0 0 0 0 0.0025 
155 1 0.108386 0.14317 0.00294911 0 0 0 0 0 0 0 0 0 0 0 0 0.0025 
156 1 0.0401594 0.0185325 0.00288368 0 0 0 0 0 0 0 0 0 0 0 0 0.0025 
157 1 0.0757159 0.0874036 0.00276896 0 0 0 0 0 0 0 0 0 0 0 0 0.0025 
158 1 0.111321 0.0923049 0.00272134 0 0 0 0 0 0 0 0 0 0 0 0 0.0025 
159 1 0.0915521 0.127258 0.00280598 0 0 0 0 0 0 0 0 0 0 0 0 0.0025 
160 1 0.139758 0.128127 0.00263652 0 0 0 0 0 0 0 0 0 0 0 0 0.0025 
161 1 0.0777997 0.0558748 0.00271856 0 0 0 0 0 0 0 0 0 0 0 0 0.0025 
162 1 0.00807457 0.0202185 0.00297327 0 0 0 0 0 0 0 0 0 0 0 0 0.0025 
163 1 0.142911 0.0990489 0.00285702 0 0 0 0 0 0 0 0 0 0 0 0 0.0025 
164 1 0.0402176 0.120792 0.00274221 0 0 0 0 0 0 0 0 0 0 0 0 0.0025 
165 1 0.0469981 0.00853845 0.00283814 0 0 0 0 0 0 0 0 0 0 0 0 0.0025 
166 1 0.0888952 0.0197747 0.00257289 0 0 0 0 0 0 0 0 0 0 0 0 0.0025 
167 1 0.0190298 0.110711 0.00284697 0 0 0 0 0 0 0 0 0 0 0 0 0.0025 
168 1 0.0945925 0.107035 0.00257094 0 0 0 0 0 0 0 0 0 0 0 0 0.0025 
169 1 0.103194 0.0707009 0.00292617 0 0 0 0 0 0 0 0 0 0 0 0 0.0025 
170 1 0.127277 0.105532 0.00299288 0 0 0 0 0 0 0 0 0 0 0 0 0.0025 
171 1 0.0813338 0.00702646 0.00292868 0 0 0 0 0 0 0 0 0 0 0 0 0.0025 
172 1 0.0678517 0.0975976 0.00285539 0 0 0 0 0 0 0 0 0 0 0 0 0.0025 
173 1 0.00464447 0.063948 0.00260097 0 0 0 0 0 0 0 0 0 0 0 0 0.0025 
174 1 0.0646559 0.136061 0.00283409 0 0 0 0 0 0 0 0 0 0 0 0 0.0025 
175 1 0.123748 0.086022 0.00288216 0 0 0 0 0 0 0 0 0 0 0 0 0.0025 
176 1 0.120251 0.037747 0.00291364 0 0 0 0 0 0 0 0 0 0 0 0 0.0025 
177 1 0.116154 0.125268 0.00298241 0 0 0 0 0 0 0 0 0 0 0 0 0.0025 
178 1 0.101509 0.0933652 0.00273324 0 0 0 0 0 0 0 0 0 0 0 0 0.0025 
179 1 0.109924 0.131968 0.00265866 0 0 0 0 0 0 0 0 0 0 0 0 0.0025 
180 1 0.0178447 0.0566568 0.00265911 0 0 0 0 0 0 0 0 0 0 0 0 0.0025 
181 1 0.142397 0.0843792 0.00269052 0 0 0 0 0 0 0 0 0 0 0 0 0.0025 
182 1 0.0317492 0.0537716 0.00266401 0 0 0 0 0 0 0 0 0 0 0 0 0.0025 
183 1 0.00493446 0.117898 0.00250573 0 0 0 0 0 0 0 0 0 0 0 0 0.0025 
184 1 0.0135185 0.0830411 0.00281264 0 0 0 0 0 0 0 0 0 0 0 0 0.0025 
185 1 0.0971894 0.0811554 0.00288128 0 0 0 0 0 0 0 0 0 0 0 0 0.0025 
186 1 0.0626761 0.0171502 0.00257608 0 0 0 0 0 0 0 0 0 0 0 0 0.0025 
187 1 0.114966 0.0181501 0.00288185 0 0 0 0 0 0 0 0 0 0 0 0 0.0025 
188 1 0.128719 0.0912535 0.00277332 0 0 0 0 0 0 0 0 0 0 0 0 0.0025 
189 1 0.142938 0.117307 0.00278279 0 0 0 0 0 0 0 0 0 0 0 0 0.0025 
190 1 0.0940618 0.0968672 0.00262554 0 0 0 0 0 0 0 0 0 0 0 0 0.0025 
191 1 0.0604887 0.0607766 0.00299873 0 0 0 0 0 0 0 0 0 0 0 0 0.0025 
192 1 0.0848441 0.1427 0.0026908 0 0 0 0 0 0 0 0 0 0 0 0 0.0025 
193 1 0.0672625 0.128318 0.00290436 0 0 0 0 0 0 0 0 0 0 0 0 0.0025 
194 1 0.0564396 0.0716392 0.00275265 0 0 0 0 0 0 0 0 0 0 0 0 0.0025 
195 1 0.135329 0.0389898 0.0029841 0 0 0 0 0 0 0 0 0 0 0 0 0.0025 
196 1 0.0595202 0.141414 0.00258809 0 0 0 0 0 0 0 0 0 0 0 0 0.0025 
197 1 0.0237251 0.00537531 0.00294612 0 0 0 0 0 0 0 0 0 0 0 0 0.0025 
198 1 0.10903 0.0103543 0.00257947 0 0 0 0 0 0 0 0 0 0 0 0 0.0025 
199 1 0.0167667 0.0496963 0.00296912 0 0 0 0 0 0 0 0 0 0 0 0 0.0025 
200 1 0.0496541 0.0992749 0.00291395 0 0 0 0 0 0 0 0 0 0 0 0 0.0025 
201 1 0.126126 0.0405624 0.0027413 0 0 0 0 0 0 0 0 0 0 0 0 0.0025 
202 1 0.0433505 0.0483575 0.00267465 0 0 0 0 0 0 0 0 0 0 0 0 0.0025 
203 1 0.132188 0.115022 0.00289554 0 0 0 0 0 0 0 0 0 0 0 0 0.0025 
204 1 0.112736 0.0769317 0.0027954 0 0 0 0 0 0 0 0 0 0 0 0 0.0025 
205 1 0.125563 0.0737161 0.00266577 0 0 0 0 0 0 0 0 0 0 0 0 0.0025 
206 1 0.0790059 0.0274485 0.00266359 0 0 0 0 0 0 0 0 0 0 0 0 0.0025 
207 1 0.0442033 0.0672503 0.00259765 0 0 0 0 0 0 0 0 0 0 0 0 0.0025 
208 1 0.138731 0.114414 0.00297211 0 0 0 0 0 0 0 0 0 0 0 0 0.0025 
209 1 0.0115637 0.0929999 0.00255293 0 0 0 0 0 0 0 0 0 0 0 0 0.0025 
210 1 0.087839 0.0875598 0.00259966 0 0 0 0 0 0 0 0 0 0 0 0 0.0025 
211 1 0.0224134 0.0149174 0.00299565 0 0 0 0 0 0 0 0 0 0 0 0 0.0025 
212 1 0.026239 0.0460636 0.00287384 0 0 0 0 0 0 0 0 0 0 0 0 0.0025 
213 1 0.0964831 0.0398063 0.0027242 0 0 0 0 0 0 0 0 0 0 0 0 0.0025 
214 1 0.0723894 0.120496 0.00260351 0 0 0 0 0 0 0 0 0 0 0 0 0.0025 
215 1 0.0824992 0.0227996 0.00298127 0 0 0 0 0 0 0 0 0 0 0 0 0.0025 
216 1 0.00305779 0.125406 0.00250066 0 0 0 0 0 0 0 0 0 0 0 0 0.0025 
217 1 0.0599487 0.039945 0.00253727 0 0 0 0 0 0 0 0 0 0 0 0 0.0025 
218 1 0.0270857 0.109217 0.00298282 0 0 0 0 0 0 0 0 0 0 0 0 0.0025 
219 1 0.134423 0.140798 0.00288149 0 0 0 0 0 0 0 0 0 0 0 0 0.0025 
220 1 0.122368 0.120097 0.00281343 0 0 0 0 0 0 0 0 0 0 0 0 0.0025 
221 1 0.0489577 0.0797911 0.00293627 0 0 0 0 0 0 0 0 0 0 0 0 0.0025 
222 1 0.0443985 0.134089 0.00288542 0 0 0 0 0 0 0 0 0 0 0 0 0.0025 
223 1 0.0452436 0.0239374 0.00260036 0 0 0 0 0 0 0 0 0 0 0 0 0.0025 
224 1 0.0930855 0.046993 0.00258699 0 0 0 0 0 0 0 0 0 0 0 0 0.0025 
225 1 0.0917451 0.0115713 0.00278882 0 0 0 0 0 0 0 0 0 0 0 0 0.0025 
226 1 0.088116 0.0697793 0.00264736 0 0 0 0 0 0 0 0 0 0 0 0 0.0025 
227 1 0.0545355 0.0563706 0.00299299 0 0 0 0 0 0 0 0 0 0 0 0 0.0025 
228 1 0.131985 0.0645475 0.00252876 0 0 0 0 0 0 0 0 0 0 0 0 0.0025 
229 1 0.0383623 0.04861 0.00295488 0 0 0 0 0 0 0 0 0 0 0 0 0.0025 
230 1 0.0540693 0.108243 0.00264358 0 0 0 0 0 0 0 0 0 0 0 0 0.0025 
231 1 0.139965 0.10621 0.00274347 0 0 0 0 0 0 0 0 0 0 0 0 0.0025 
232 1 0.0244892 0.141014 0.0025137 0 0 0 0 0 0 0 0 0 0 0 0 0.0025 
233 1 0.115685 0.11981 0.00255222 0 0 0 0 0 0 0 0 0 0 0 0 0.0025 
234 1 0.133095 0.0226254 0.00272651 0 0 0 0 0 0 0 0 0 0 0 0 0.0025 
235 1 0.130303 0.13262 0.0027514 0 0 0 0 0 0 0 0 0 0 0 0 0.0025 
236 1 0.11457 0.0715435 0.00270168 0 0 0 0 0 0 0 0 0 0 0 0 0.0025 
237 1 0.126703 0.100361 0.00266859 0 0 0 0 0 0 0 0 0 0 0 0 0.0025 
238 1 0.097101 0.0552749 0.00256974 0 0 0 0 0 0 0 0 0 0 0 0 0.0025 
239 1 0.126429 0.0246675 0.00262821 0 0 0 0 0 0 0 0 0 0 0 0 0.0025 
240 1 0.100463 0.0319939 0.00290893 0 0 0 0 0 0 0 0 0 0 0 0 0.0025 
241 1 0.0289819 0.137764 0.00255077 0 0 0 0 0 0 0 0 0 0 0 0 0.0025 
242 1 0.0337931 0.082598 0.00285076 0 0 0 0 0 0 0 0 0 0 0 0 0.0025 
243 1 0.0280287 0.0363908 0.00264708 0 0 0 0 0 0 0 0 0 0 0 0 0.0025 
244 1 0.0143916 0.00607059 0.00297192 0 0 0 0 0 0 0 0 0 0 0 0 0.0025 
245 1 0.0671715 0.0579957 0.00299912 0 0 0 0 0 0 0 0 0 0 0 0 0.0025 
246 1 0.0388513 0.0884379 0.00284764 0 0 0 0 0 0 0 0 0 0 0 0 0.0025 
247 1 0.11102 0.00414077 0.0026222 0 0 0 0 0 0 0 0 0 0 0 0 0.0025 
248 1 0.101569 0.0781135 0.00272774 0 0 0 0 0 0 0 0 0 0 0 0 0.0025 
249 1 0.0261921 0.13335 0.00267619 0 0 0 0 0 0 0 0 0 0 0 0 0.0025 
250 1 0.00476455 0.0372776 0.00284408 0 0 0 0 0 0 0 0 0 0 0 0 0.0025 
251 1 0.0545289 0.0912449 0.00286669 0 0 0 0 0 0 0 0 0 0 0 0 0.0025 
252 1 0.00671852 0.0142999 0.00264251 0 0 0 0 0 0 0 0 0 0 0 0 0.0025 
253 1 0.0373867 0.0105808 0.00288641 0 0 0 0 0 0 0 0 0 0 0 0 0.0025 
254 1 0.0493134 0.0691625 0.00278442 0 0 0 0 0 0 0 0 0 0 0 0 0.0025 
255 1 0.0793146 0.103359 0.00289612 0 0 0 0 0 0 0 0 0 0 0 0 0.0025 
256 1 0.0295054 0.0256928 0.00253261 0 0 0 0 0 0 0 0 0 0 0 0 0.0025 
257 1 0.108822 0.0198182 0.00262287 0 0 0 0 0 0 0 0 0 0 0 0 0.0025 
258 1 0.0476514 0.0330712 0.00271601 0 0 0 0 0 0 0 0 0 0 0 0 0.0025 
259 1 0.107093 0.0251024 0.00286394 0 0 0 0 0 0 0 0 0 0 0 0 0.0025 
260 1 0.0985962 0.0625405 0.00285099 0 0 0 0 0 0 0 0 0 0 0 0 0.0025 
261 1 0.113272 0.0240679 0.00265372 0 0 0 0 0 0 0 0 0 0 0 0 0.0025 
262 1 0.00256948 0.0976668 0.0026745 0 0 0 0 0 0 0 0 0 0 0 0 0.0025 
263 1 0.0705798 0.0866385 0.00257663 0 0 0 0 0 0 0 0 0 0 0 0 0.0025 
264 1 0.121363 0.0219473 0.00256983 0 0 0 0 0 0 0 0 0 0 0 0 0.0025 
265 1 0.0863288 0.120731 0.00266001 0 0 0 0 0 0 0 0 0 0 0 0 0.0025 
266 1 0.129164 0.125554 0.00263437 0 0 0 0 0 0 0 0 0 0 0 0 0.0025 
267 1 0.0763715 0.00591347 0.00253403 0 0 0 0 0 0 0 0 0 0 0 0 0.0025 
268 1 0.0734874 0.0256494 0.00254904 0 0 0 0 0 0 0 0 0 0 0 0 0.0025 
269 1 0.0176452 0.0618019 0.00285673 0 0 0 0 0 0 0 0 0 0 0 0 0.0025 
270 1 0.0594382 0.0782439 0.00273645 0 0 0 0 0 0 0 0 0 0 0 0 0.0025 
271 1 0.130454 0.0481926 0.0027991 0 0 0 0 0 0 0 0 0 0 0 0 0.0025 
272 1 0.116867 0.131133 0.00266276 0 0 0 0 0 0 0 0 0 0 0 0 0.0025 
273 1 0.0553587 0.0153773 0.00254971 0 0 0 0 0 0 0 0 0 0 0 0 0.0025 
274 1 0.0329681 0.091584 0.00297466 0 0 0 0 0 0 0 0 0 0 0 0 0.0025 
275 1 0.0102265 0.110224 0.00260534 0 0 0 0 0 0 0 0 0 0 0 0 0.0025 
276 1 0.0758336 0.0211654 0.00274258 0 0 0 0 0 0 0 0 0 0 0 0 0.0025 
277 1 0.0241545 0.0665556 0.00293885 0 0 0 0 0 0 0 0 0 0 0 0 0.0025 
278 1 0.0202299 0.124476 0.0025193 0 0 0 0 0 0 0 0 0 0 0 0 0.0025 
279 1 0.141578 0.0552319 0.00286244 0 0 0 0 0 0 0 0 0 0 0 0 0.0025 
280 1 0.134454 0.0859867 0.00253692 0 0 0 0 0 0 0 0 0 0 0 0 0.0025 
281 1 0.0681736 0.104306 0.00265337 0 0 0 0 0 0 0 0 0 0 0 0 0.0025 
282 1 0.107498 0.106835 0.00277131 0 0 0 0 0 0 0 0 0 0 0 0 0.0025 
283 1 0.11593 0.00793895 0.00292831 0 0 0 0 0 0 0 0 0 0 0 0 0.0025 
284 1 0.0180985 0.0866386 0.00258829 0 0 0 0 0 0 0 0 0 0 0 0 0.0025 
285 1 0.0316739 0.103637 0.00271691 0 0 0 0 0 0 0 0 0 0 0 0 0.0025 
286 1 0.125179 0.0529027 0.00275264 0 0 0 0 0 0 0 0 0 0 0 0 0.0025 
287 1 0.0944088 0.0868127 0.0027716 0 0 0 0 0 0 0 0 0 0 0 0 0.0025 
288 1 0.119965 0.0490964 0.00281423 0 0 0 0 0 0 0 0 0 0 0 0 0.0025 
289 1 0.0236153 0.059933 0.00255827 0 0 0 0 0 0 0 0 0 0 0 0 0.0025 
290 1 0.0801817 0.0704309 0.00256094 0 0 0 0 0 0 0 0 0 0 0 0 0.0025 
291 1 0.0586313 0.100048 0.00297237 0 0 0 0 0 0 0 0 0 0 0 0 0.0025 
292 1 0.04471 0.11099 0.00291897 0 0 0 0 0 0 0 0 0 0 0 0 0.0025 
293 1 0.107089 0.0971542 0.0027568 0 0 0 0 0 0 0 0 0 0 0 0 0.0025 
294 1 0.142655 0.0436477 0.00289597 0 0 0 0 0 0 0 0 0 0 0 0 0.0025 
295 1 0.125765 0.111381 0.00296406 0 0 0 0 0 0 0 0 0 0 0 0 0.0025 
296 1 0.117993 0.0643917 0.00289985 0 0 0 0 0 0 0 0 0 0 0 0 0.0025 
297 1 0.137937 0.0600635 0.00270292 0 0 0 0 0 0 0 0 0 0 0 0 0.0025 
298 1 0.0419367 0.0939478 0.002985 0 0 0 0 0 0 0 0 0 0 0 0 0.0025 
299 1 0.136768 0.122286 0.00252393 0 0 0 0 0 0 0 0 0 0 0 0 0.0025 
300 1 0.0763966 0.135244 0.00258585 0 0 0 0 0 0 0 0 0 0 0 0 0.0025 
301 1 0.0608863 0.0237468 0.00297781 0 0 0 0 0 0 0 0 0 0 0 0 0.0025 
302 1 0.0132338 0.118063 0.00280153 0 0 0 0 0 0 0 0 0 0 0 0 0.0025 
303 1 0.067754 0.0632182 0.00275693 0 0 0 0 0 0 0 0 0 0 0 0 0.0025 
304 1 0.00354342 0.108139 0.00284495 0 0 0 0 0 0 0 0 0 0 0 0 0.0025 
305 1 0.104529 0.0155251 0.00257365 0 0 0 0 0 0 0 0 0 0 0 0 0.0025 
306 1 0.0690106 0.00343739 0.00296801 0 0 0 0 0 0 0 0 0 0 0 0 0.0025 
307 1 0.00521754 0.0556488 0.00269813 0 0 0 0 0 0 0 0 0 0 0 0 0.0025 
308 1 0.101611 0.0500262 0.00275836 0 0 0 0 0 0 0 0 0 0 0 0 0.0025 
309 1 0.0978018 0.00272405 0.00250643 0 0 0 0 0 0 0 0 0 0 0 0 0.0025 
310 1 0.140203 0.0136828 0.00259512 0 0 0 0 0 0 0 0 0 0 0 0 0.0025 
311 1 0.0890439 0.0364689 0.0025462 0 0 0 0 0 0 0 0 0 0 0 0 0.0025 
312 1 0.0298523 0.0136046 0.00264718 0 0 0 0 0 0 0 0 0 0 0 0 0.0025 
313 1 0.100702 0.104975 0.00267218 0 0 0 0 0 0 0 0 0 0 0 0 0.0025 
314 1 0.072325 0.0609757 0.00250858 0 0 0 0 0 0 0 0 0 0 0 0 0.0025 
315 1 0.113847 0.0503479 0.00285038 0 0 0 0 0 0 0 0 0 0 0 0 0.0025 
316 1 0.0903138 0.0550495 0.00289324 0 0 0 0 0 0 0 0 0 0 0 0 0.0025 
317 1 0.111381 0.0851705 0.00298992 0 0 0 0 0 0 0 0 0 0 0 0 0.0025 
318 1 0.0804371 0.126432 0.00283736 0 0 0 0 0 0 0 0 0 0 0 0 0.0025 
319 1 0.0268522 0.126945 0.00276914 0 0 0 0 0 0 0 0 0 0 0 0 0.0025 
320 1 0.0230338 0.071752 0.00260986 0 0 0 0 0 0 0 0 0 0 0 0 0.0025 
321 1 0.105055 0.102238 0.00282466 0 0 0 0 0 0 0 0 0 0 0 0 0.0025 
322 1 0.0709599 0.0479928 0.00283048 0 0 0 0 0 0 0 0 0 0 0 0 0.0025 
323 1 0.0935675 0.114204 0.00253426 0 0 0 0 0 0 0 0 0 0 0 0 0.0025 
324 1 0.119914 0.0593513 0.00296346 0 0 0 0 0 0 0 0 0 0 0 0 0.0025 
325 1 0.0510587 0.0443079 0.00270107 0 0 0 0 0 0 0 0 0 0 0 0 0.0025 
326 1 0.0540384 0.0265452 0.00297836 0 0 0 0 0 0 0 0 0 0 0 0 0.0025 
327 1 0.0556449 0.00514923 0.00286125 0 0 0 0 0 0 0 0 0 0 0 0 0.0025 
328 1 0.103918 0.113813 0.00263454 0 0 0 0 0 0 0 0 0 0 0 0 0.0025 
329 1 0.132651 0.0166202 0.00261724 0 0 0 0 0 0 0 0 0 0 0 0 0.0025 
330 1 0.0419728 0.115578 0.0029893 0 0 0 0 0 0 0 0 0 0 0 0 0.0025 
331 1 0.0187719 0.0106761 0.0027513 0 0 0 0 0 0 0 0 0 0 0 0 0.0025 
332 1 0.00591402 0.0765844 0.00296727 0 0 0 0 0 0 0 0 0 0 0 0 0.0025 
333 1 0.0591971 0.115013 0.002782 0 0 0 0 0 0 0 0 0 0 0 0 0.0025 
334 1 0.133137 0.00585265 0.00254277 0 0 0 0 0 0 0 0 0 0 0 0 0.0025 
335 1 0.00939466 0.00588772 0.00273679 0 0 0 0 0 0 0 0 0 0 0 0 0.0025 
336 1 0.121403 0.114456 0.00257718 0 0 0 0 0 0 0 0 0 0 0 0 0.0025 
337 1 0.0183081 0.103359 0.00257005 0 0 0 0 0 0 0 0 0 0 0 0 0.0025 
338 1 0.139292 0.0343225 0.00264549 0 0 0 0 0 0 0 0 0 0 0 0 0.0025 
339 1 0.0153572 0.0221042 0.00288681 0 0 0 0 0 0 0 0 0 0 0 0 0.0025 
340 1 0.111425 0.100483 0.0028207 0 0 0 0 0 0 0 0 0 0 0 0 0.0025 
341 1 0.12847 0.142049 0.00276857 0 0 0 0 0 0 0 0 0 0 0 0 0.0025 
342 1 0.0285156 0.0414143 0.00291914 0 0 0 0 0 0 0 0 0 0 0 0 0.0025 
343 1 0.0477741 0.0508862 0.00254422 0 0 0 0 0 0 0 0 0 0 0 0 0.0025 
344 1 0.0748638 0.0806861 0.00289536 0 0 0 0 0 0 0 0 0 0 0 0 0.0025 
345 1 0.135358 0.0922961 0.00262708 0 0 0 0 0 0 0 0 0 0 0 0 0.0025 
346 1 0.0477881 0.140458 0.00263116 0 0 0 0 0 0 0 0 0 0 0 0 0.0025 
347 1 0.140911 0.0894545 0.00273797 0 0 0 0 0 0 0 0 0 0 0 0 0.0025 
348 1 0.0803509 0.138451 0.00254688 0 0 0 0 0 0 0 0 0 0 0 0 0.0025 
349 1 0.0635033 0.0435344 0.00268449 0 0 0 0 0 0 0 0 0 0 0 0 0.0025 
350 1 0.133845 0.0742547 0.00255297 0 0 0 0 0 0 0 0 0 0 0 0 0.0025 
351 1 0.0354929 0.0231125 0.00299922 0 0 0 0 0 0 0 0 0 0 0 0 0.0025 
352 1 0.106618 0.0743595 0.00286509 0 0 0 0 0 0 0 0 0 0 0 0 0.0025 
353 1 0.016123 0.0391631 0.00265728 0 0 0 0 0 0 0 0 0 0 0 0 0.0025 
354 1 0.143028 0.0287435 0.00276767 0 0 0 0 0 0 0 0 0 0 0 0 0.0025 
355 1 0.130933 0.0566914 0.00250506 0 0 0 0 0 0 0 0 0 0 0 0 0.0025 
356 1 0.0223715 0.040858 0.00281122 0 0 0 0 0 0 0 0 0 0 0 0 0.0025 
357 1 0.127904 0.119497 0.00286929 0 0 0 0 0 0 0 0 0 0 0 0 0.0025 
358 1 0.102358 0.0377726 0.00264373 0 0 0 0 0 0 0 0 0 0 0 0 0.0025 
359 1 0.0899453 0.141632 0.00272161 0 0 0 0 0 0 0 0 0 0 0 0 0.0025 
360 1 0.00506206 0.0715439 0.00290631 0 0 0 0 0 0 0 0 0 0 0 0 0.0025 
361 1 0.0123043 0.124025 0.002674 0 0 0 0 0 0 0 0 0 0 0 0 0.0025 
362 1 0.0919893 0.0254582 0.00255377 0 0 0 0 0 0 0 0 0 0 0 0 0.0025 
363 1 0.091138 0.0312292 0.00295701 0 0 0 0 0 0 0 0 0 0 0 0 0.0025 
364 1 0.032076 0.141814 0.0027104 0 0 0 0 0 0 0 0 0 0 0 0 0.0025 
365 1 0.0827792 0.0553276 0.00290829 0 0 0 0 0 0 0 0 0 0 0 0 0.0025 
366 1 0.120418 0.0724128 0.00284687 0 0 0 0 0 0 0 0 0 0 0 0 0.0025 
367 1 0.131505 0.0278916 0.00260941 0 0 0 0 0 0 0 0 0 0 0 0 0.0025 
368 1 0.0875964 0.100439 0.00259991 0 0 0 0 0 0 0 0 0 0 0 0 0.0025 
369 1 0.114315 0.0294562 0.00285402 0 0 0 0 0 0 0 0 0 0 0 0 0.0025 
370 1 0.0729793 0.102334 0.00296232 0 0 0 0 0 0 0 0 0 0 0 0 0.0025 
371 1 0.0352465 0.117255 0.00251557 0 0 0 0 0 0 0 0 0 0 0 0 0.0025 
372 1 0.122547 0.0667814 0.0028468 0 0 0 0 0 0 0 0 0 0 0 0 0.0025 
373 1 0.104033 0.00912094 0.00298659 0 0 0 0 0 0 0 0 0 0 0 0 0.0025 
374 1 0.0677485 0.115761 0.00289492 0 0 0 0 0 0 0 0 0 0 0 0 0.0025 
375 1 0.00305004 0.141215 0.00282114 0 0 0 0 0 0 0 0 0 0 0 0 0.0025 
376 1 0.143384 0.0225559 0.00274951 0 0 0 0 0 0 0 0 0 0 0 0 0.0025 
377 1 0.0407639 0.100552 0.00296506 0 0 0 0 0 0 0 0 0 0 0 0 0.0025 
378 1 0.107295 0.0634963 0.00272833 0 0 0 0 0 0 0 0 0 0 0 0 0.0025 
379 1 0.117699 0.0842313 0.00254386 0 0 0 0 0 0 0 0 0 0 0 0 0.0025 
380 1 0.121908 0.129448 0.00265741 0 0 0 0 0 0 0 0 0 0 0 0 0.0025 
381 1 0.112703 0.109216 0.00267987 0 0 0 0 0 0 0 0 0 0 0 0 0.0025 
382 1 0.0717414 0.0380681 0.00263461 0 0 0 0 0 0 0 0 0 0 0 0 0.0025 
383 1 0.0528775 0.0864828 0.00298508 0 0 0 0 0 0 0 0 0 0 0 0 0.0025 
384 1 0.114863 0.0352442 0.0029883 0 0 0 0 0 0 0 0 0 0 0 0 0.0025 
385 1 0.0729652 0.0124751 0.00278746 0 0 0 0 0 0 0 0 0 0 0 0 0.0025 
386 1 0.0895947 0.0925219 0.00256839 0 0 0 0 0 0 0 0 0 0 0 0 0.0025 
387 1 0.0247519 0.0275358 0.00296393 0 0 0 0 0 0 0 0 0 0 0 0 0.0025 
388 1 0.0583008 0.0946168 0.00289886 0 0 0 0 0 0 0 0 0 0 0 0 0.0025 
389 1 0.0195183 0.140137 0.00277344 0 0 0 0 0 0 0 0 0 0 0 0 0.0025 
390 1 0.0321153 0.0719173 0.00277071 0 0 0 0 0 0 0 0 0 0 0 0 0.0025 
391 1 0.0544031 0.0213565 0.00264027 0 0 0 0 0 0 0 0 0 0 0 0 0.0025 
392 1 0.0480341 0.0397111 0.00297545 0 0 0 0 0 0 0 0 0 0 0 0 0.0025 
393 1 0.0629659 0.0671288 0.00268832 0 0 0 0 0 0 0 0 0 0 0 0 0.0025 
394 1 0.00406454 0.102933 0.002628 0 0 0 0 0 0 0 0 0 0 0 0 0.0025 
395 1 0.0645267 0.0100938 0.00271322 0 0 0 0 0 0 0 0 0 0 0 0 0.0025 
396 1 0.137265 0.00290667 0.0025826 0 0 0 0 0 0 0 0 0 0 0 0 0.0025 
397 1 0.13734 0.101847 0.00299888 0 0 0 0 0 0 0 0 0 0 0 0 0.0025 
398 1 0.0908313 0.13514 0.00255163 0 0 0 0 0 0 0 0 0 0 0 0 0.0025 
399 1 0.0137155 0.0340096 0.00262182 0 0 0 0 0 0 0 0 0 0 0 0 0.0025 
400 1 0.126577 0.0297773 0.00257981 0 0 0 0 0 0 0 0 0 0 0 0 0.0025 
401 1 0.0114024 0.0108763 0.00292215 0 0 0 0 0 0 0 0 0 0 0 0 0.0025 
402 1 0.0857644 0.128414 0.002997 0 0 0 0 0 0 0 0 0 0 0 0 0.0025 
403 1 0.0423675 0.0316544 0.00255763 0 0 0 0 0 0 0 0 0 0 0 0 0.0025 
404 1 0.0271272 0.0748721 0.00280526 0 0 0 0 0 0 0 0 0 0 0 0 0.0025 
405 1 0.092574 0.0665379 0.00273694 0 0 0 0 0 0 0 0 0 0 0 0 0.0025 
406 1 0.0590662 0.105949 0.00264559 0 0 0 0 0 0 0 0 0 0 0 0 0.0025 
407 1 0.0394793 0.126684 0.00269192 0 0 0 0 0 0 0 0 0 0 0 0 0.0025 
408 1 0.0872734 0.0755845 0.00263227 0 0 0 0 0 0 0 0 0 0 0 0 0.0025 
409 1 0.0731969 0.107991 0.00269708 0 0 0 0 0 0 0 0 0 0 0 0 0.0025 
410 1 0.0763481 0.0503126 0.00250256 0 0 0 0 0 0 0 0 0 0 0 0 0.0025 
411 1 0.0292901 0.058473 0.00256754 0 0 0 0 0 0 0 0 0 0 0 0 0.0025 
412 1 0.119502 0.00372389 0.00278475 0 0 0 0 0 0 0 0 0 0 0 0 0.0025 
413 1 0.0375283 0.0545281 0.00294003 0 0 0 0 0 0 0 0 0 0 0 0 0.0025 
414 1 0.0751275 0.130203 0.00259686 0 0 0 0 0 0 0 0 0 0 0 0 0.0025 
415 1 0.0648955 0.0732554 0.00258945 0 0 0 0 0 0 0 0 0 0 0 0 0.0025 
