ITEM: TIMESTEP
4000
ITEM: NUMBER OF ATOMS
415
ITEM: BOX BOUNDS pp pp pp
0.022 0.124059
0.022 0.124059
0 0.0055
ITEM: ATOMS id type x y z ix iy iz vx vy vz fx fy fz omegax omegay omegaz radius 
1 1 0.0482826 0.0996152 0.00297736 0 0 0 0.120475 0.0935039 0.0240396 -5.55717 -4.7557 -0.0851179 13.8658 -0.877141 53.7917 0.0025 
2 1 0.0339872 0.11278 0.00273044 0 0 0 -0.0409156 -0.0304817 -0.00352081 1.49106 -5.558 -0.391974 3.04098 -0.563994 27.4306 0.0025 
3 1 0.0787334 0.0760023 0.00284771 0 0 0 0.0444186 0.262777 0.0188063 9.30162 0.808271 0.126317 2.34268 -2.26759 38.9966 0.0025 
4 1 0.100301 0.06234 0.00265638 0 0 0 -0.0552803 0.188641 -0.00796505 -3.21302 10.018 -0.458989 -0.463182 0.435909 13.6369 0.0025 
5 1 0.0445134 0.0663994 0.00287481 0 0 0 -0.101002 0.19956 0.0289444 1.21918 0.116081 0.549927 6.16016 -2.27158 -31.7646 0.0025 
6 1 0.046763 0.0514935 0.00242053 0 0 0 0.141437 -0.0814584 -0.0512576 -11.3573 0.820915 -1.35322 -3.44736 -2.14108 12.715 0.0025 
7 1 0.0375192 0.0372661 0.0025581 0 0 0 -0.0297583 0.0300691 -0.0393914 5.2512 1.65592 -1.31496 -1.27594 0.760766 20.9722 0.0025 
8 1 0.0802669 0.0546546 0.00286502 0 0 0 0 0 0 0 0 0 0 0 0 0.0025 
9 1 0.0563869 0.041958 0.00250649 0 0 0 0.13813 0.0724571 -0.0270168 -0.733317 -7.14742 -0.543679 -6.42365 -8.55161 -0.16453 0.0025 
10 1 0.107115 0.0867271 0.00258259 0 0 0 -0.0437789 0.163469 -0.031616 -0.502396 -4.0363 -0.457952 -2.19479 -2.71955 -13.5013 0.0025 
11 1 0.0754463 0.0524215 0.00264953 0 0 0 0.0305493 -0.303842 0.00480042 0.967206 -0.15693 -0.0063285 -3.61182 -0.871434 -19.4696 0.0025 
12 1 0.0236287 0.0566266 0.00270863 0 0 0 -0.14384 -0.246695 0.00171997 -1.75814 -2.69487 0.0267886 1.62447 -0.696241 36.0733 0.0025 
13 1 0.0892299 0.11497 0.00287665 0 0 0 0.0369028 -0.139331 0.0272684 2.37971 -7.15636 0.09333 -6.51488 -5.29215 -26.0584 0.0025 
14 1 0.0758825 0.101334 0.00275697 0 0 0 0.191996 0.265096 -0.00346381 1.71604 1.18687 -0.152832 5.41716 -3.69536 5.69993 0.0025 
15 1 0.0971179 0.0787095 0.00255393 0 0 0 -0.12312 -0.0146437 -0.0497208 -5.84785 -9.08833 -1.00141 7.38404 -4.47582 21.0311 0.0025 
16 1 0.0509359 0.07752 0.00280115 0 0 0 0.110323 0.422179 -0.00505944 -10.2306 2.0443 -0.155737 -5.8459 -3.22226 -98.2199 0.0025 
17 1 0.0762065 0.0454205 0.0024938 0 0 0 0.301707 -0.184705 -0.0146456 -4.95039 9.34895 -0.492069 1.96854 1.97399 31.1261 0.0025 
18 1 0.0947918 0.0612976 0.00278036 0 0 0 -0.12029 0.353546 -0.00233521 -1.40585 -0.600456 0.0199595 1.44815 -0.787779 -69.5372 0.0025 
19 1 0.0810587 0.0324311 0.00275229 0 0 0 -0.164033 -0.186593 0.00918671 -3.28372 -4.03283 0.205971 -0.185698 -0.00945307 -3.30719 0.0025 
20 1 0.0706409 0.0775944 0.00250243 0 0 0 0.0899797 -0.144027 -0.0172425 -3.61913 -0.184101 -0.177722 -0.698952 -0.408469 0.998736 0.0025 
21 1 0.0682484 0.0467623 0.00296931 0 0 0 0.137464 -0.176495 0.0470241 4.6027 -5.13166 1.23436 -5.47834 -8.48227 -2.18749 0.0025 
22 1 0.0916353 0.0912699 0.0024714 0 0 0 -0.00533388 0.000600327 -0.0356369 7.34993 -2.41553 -0.557048 3.54748 -1.09427 -12.3294 0.0025 
23 1 0.118412 0.0704417 0.00276424 0 0 0 0.177445 0.00709205 0.0139494 0.957563 8.54475 0.349673 2.51639 -0.927551 -14.6544 0.0025 
24 1 0.11073 0.0319323 0.00251758 0 0 0 -0.0456669 -0.100825 -0.0145428 -7.77541 -4.05739 -0.227196 0.634844 -0.365186 -21.9408 0.0025 
25 1 0.0975666 0.045687 0.00249535 0 0 0 0.0639944 -0.273734 -0.0157769 2.49073 -10.4611 -0.613487 -3.13009 1.29034 4.97604 0.0025 
26 1 0.0517326 0.0240946 0.00298042 0 0 0 -0.103502 -0.134567 0.00414249 -5.54902 -7.21577 0.229576 -0.696152 0.423347 -3.63941 0.0025 
27 1 0.0504111 0.072811 0.00304344 0 0 0 -0.143764 0.168694 0.0416759 0.500833 0.572863 0.0596326 2.87287 1.50712 -87.2409 0.0025 
28 1 0.0724057 0.0869054 0.0027108 0 0 0 -0.00245601 0.0340474 -0.00569524 -1.00215 2.84296 -0.209907 -2.16932 -1.51519 3.28331 0.0025 
29 1 0.109514 0.0270494 0.00286296 0 0 0 -0.0717493 0.0505149 0.00870095 -3.97631 3.31393 0.556056 -0.335065 1.69262 -1.48034 0.0025 
30 1 0.116676 0.0292476 0.00280624 0 0 0 -0.0915204 -0.0319301 0.0192228 6.66087 -8.18207 0.30548 1.47707 -1.42567 -20.8436 0.0025 
31 1 0.0898641 0.0285187 0.00282475 0 0 0 -0.0798903 -0.124173 0.000274854 12.7028 5.78349 0.36237 1.45738 -5.71846 -25.4624 0.0025 
32 1 0.0904544 0.0334771 0.00293483 0 0 0 -0.273952 0.195742 0.0171442 -2.07808 -0.496651 0.130067 0.184301 1.2001 -60.1506 0.0025 
33 1 0.0945825 0.0824212 0.00285271 0 0 0 -0.0461803 0.0437761 0.00507804 -1.75893 -0.832123 0.363679 1.99187 1.25067 7.08541 0.0025 
34 1 0.0557681 0.0955632 0.00293205 0 0 0 -0.126702 -0.298186 0.0192552 -2.64374 8.32103 0.118845 1.45717 2.79174 82.6241 0.0025 
35 1 0.0654795 0.0235566 0.00247577 0 0 0 -0.285997 -0.103561 -0.0247371 0 0 0 8.59409 -3.60334 -83.4391 0.0025 
36 1 0.121303 0.0272082 0.00278511 0 0 0 0.153759 -0.0525582 0.0102481 -1.55181 -1.47362 0.574747 1.19709 1.59319 -3.38055 0.0025 
37 1 0.0389354 0.0593771 0.00278126 0 0 0 -0.155681 0.447645 -0.00926552 0.553958 -9.84926 0.337321 -0.590431 -0.654073 -35.8813 0.0025 
38 1 0.0437633 0.0550763 0.00250586 0 0 0 -0.164181 -0.265841 -0.0572337 2.89106 4.34317 -0.737207 -2.56308 -5.61051 -19.1474 0.0025 
39 1 0.0534655 0.083272 0.00272855 0 0 0 0.0384306 -0.204128 -0.00867886 -0.590657 -3.52081 -0.496007 -1.87142 0.475127 0.462324 0.0025 
40 1 0.0880262 0.0728901 0.00249504 0 0 0 0.0984332 0.21844 -0.0114653 1.97914 5.76751 -0.286807 0.199235 2.3287 46.5695 0.0025 
41 1 0.0418868 0.0828962 0.00270654 0 0 0 -0.0183745 0.150968 -0.0116791 -6.23802 2.78739 -0.52032 0.151192 -0.752929 -6.62372 0.0025 
42 1 0.0380706 0.10483 0.00248297 0 0 0 -0.14771 -0.226545 -0.0145101 -0.183637 -6.28814 -0.125765 -2.09124 -4.89266 12.634 0.0025 
43 1 0.0498523 0.119553 0.00257816 0 0 0 0.154557 0.0995545 0.00216295 4.31408 5.0051 -0.00649332 -0.100638 -0.929942 32.5412 0.0025 
44 1 0.092984 0.105714 0.00296246 0 0 0 0.0119766 0.145698 0.0158655 4.91478 -1.56725 0.31633 -0.937357 -0.919983 8.80327 0.0025 
45 1 0.0395248 0.0789198 0.00281271 0 0 0 -0.159424 0.0751016 0.00462765 -3.71543 5.25277 0.0765788 -1.68431 -0.324069 36.7784 0.0025 
46 1 0.0340684 0.075183 0.00270767 0 0 0 -0.311058 0.245196 0.00523458 -1.52849 3.61407 -0.00584113 4.06575 5.98897 -18.0792 0.0025 
47 1 0.0237464 0.0279559 0.00248587 0 0 0 -0.314609 0.0792586 -0.0179527 3.95966 -3.04302 -0.376155 1.69275 1.48263 -33.3392 0.0025 
48 1 0.0971697 0.108826 0.00256386 0 0 0 0 0 0 0 0 0 0 0 0 0.0025 
49 1 0.0569767 0.0312341 0.0029036 0 0 0 0.154672 -0.236631 0.030554 5.60603 -7.52852 0.422734 -6.2603 -1.00492 -53.5933 0.0025 
50 1 0.0652029 0.0577647 0.00267836 0 0 0 -0.0181122 0.120157 -0.000229695 1.11019 5.73149 -0.105674 -1.28984 -0.551687 -8.88786 0.0025 
51 1 0.0473338 0.0472138 0.00288639 0 0 0 -0.0287292 -0.144849 0.0215724 -7.02267 -3.5149 1.2785 -1.59597 -0.339589 -28.9926 0.0025 
52 1 0.0807357 0.115663 0.00256758 0 0 0 -0.112242 -0.137797 -0.00880116 -3.25891 -3.89371 -0.0801066 -7.21959 -0.19144 -0.748436 0.0025 
53 1 0.0947362 0.0525823 0.00298304 0 0 0 0.122593 -0.162408 0.0206509 1.80836 8.13966 0.574705 0.805293 -0.0997962 47.7173 0.0025 
54 1 0.0292584 0.0524504 0.00291759 0 0 0 0 0 0 0 0 0 0 0 0 0.0025 
55 1 0.0275846 0.0788745 0.00243868 0 0 0 -0.14314 -0.0796898 -0.0768016 -3.55115 -3.4191 -0.486493 -4.72673 -9.35401 -33.7729 0.0025 
56 1 0.0655821 0.0841836 0.00276242 0 0 0 0.104063 -0.106013 -0.00491518 2.3038 0.242373 -0.0772293 -0.807258 0.510819 -29.697 0.0025 
57 1 0.0479963 0.0951238 0.00230348 0 0 0 -0.0287679 -0.00441158 -0.0630938 0.865976 -2.46981 -0.385304 6.4574 1.15389 -61.5912 0.0025 
58 1 0.105764 0.0404935 0.00281296 0 0 0 0.0529215 -0.273085 0.0050363 3.38259 0.573185 -0.179913 -7.06433 4.83136 10.6856 0.0025 
59 1 0.0596646 0.11894 0.00249447 0 0 0 0.048594 -0.112404 -0.00828699 -5.33783 -2.14188 -0.108689 0.0487725 -0.652388 8.84719 0.0025 
60 1 0.0994729 0.1026 0.00250563 0 0 0 -0.207566 0.0422349 -0.0120392 -5.91229 -6.05123 -0.128204 -1.44147 3.87396 17.8721 0.0025 
61 1 0.0663154 0.0799634 0.00262077 0 0 0 -0.0983663 0.130641 -0.00789501 4.28757 -7.69008 -0.344764 1.56226 7.03341 35.7536 0.0025 
62 1 0.0814993 0.10202 0.00299702 0 0 0 -0.00619859 -0.0476346 0.0216427 1.31836 5.74668 0.450341 2.05121 0.525581 -21.8323 0.0025 
63 1 0.118519 0.0402749 0.00267798 0 0 0 0.303323 0.0334137 0.00378935 2.93345 4.48612 0.308135 -1.04377 2.31682 16.4852 0.0025 
64 1 0.0601139 0.0506558 0.00281047 0 0 0 0.0319007 0.211842 0.00134084 5.71427 7.80166 -0.23247 -2.66653 11.4712 10.867 0.0025 
65 1 0.0403122 0.0879869 0.00299102 0 0 0 0.141543 0.00700007 0.00671714 3.7675 0.188101 0.187935 -0.000448769 0.0113757 -0.00229822 0.0025 
66 1 0.118828 0.0357399 0.00245331 0 0 0 0.215971 0.0498221 -0.0346065 6.03817 -5.84186 -0.627477 4.39031 8.13932 98.4902 0.0025 
67 1 0.0319186 0.116513 0.00304907 0 0 0 -0.356976 0.0204128 0.0316519 -3.21217 8.7716 0.562933 5.24575 -0.613738 62.1707 0.0025 
68 1 0.0709526 0.0279515 0.00290443 0 0 0 -0.105671 0.096165 0.0305371 -8.76271 3.19038 0.624979 -1.81951 7.56214 -8.01323 0.0025 
69 1 0.0796664 0.0980501 0.00272665 0 0 0 -0.286307 0.0888643 -0.0154584 -1.97819 1.25891 -0.617406 1.26424 -1.85678 -10.8925 0.0025 
70 1 0.0488671 0.0410211 0.00262402 0 0 0 -0.154337 -0.0780765 -0.0156111 -5.69423 0.111837 0.161789 -6.9274 8.88215 57.5925 0.0025 
71 1 0.0680029 0.0414735 0.00267801 0 0 0 0.0353048 0.131348 -0.00794234 -4.58927 1.56896 0.102252 0.663898 1.46263 8.46284 0.0025 
72 1 0.0598267 0.0463604 0.00296721 0 0 0 0.222195 -0.166263 0.026864 -2.84154 -7.14801 0.359336 2.33778 2.13522 31.4499 0.0025 
73 1 0.0793554 0.081125 0.00246199 0 0 0 0.07912 -0.195819 -0.0206932 -8.81693 -2.25411 -0.267127 0.912435 2.97447 -8.5047 0.0025 
74 1 0.0977556 0.118281 0.00234762 0 0 0 0.072303 0.189344 -0.0424302 -1.83934 0.229691 -0.444755 -7.72444 0.823872 -49.9548 0.0025 
75 1 0.115194 0.0456494 0.00253367 0 0 0 0.0526544 0.268626 -0.0235781 0.814437 1.79912 -0.377629 1.913 2.77398 47.2837 0.0025 
76 1 0.107603 0.120906 0.00297377 0 0 0 -0.205748 0.0110073 0.0202381 -4.89398 -0.209766 0.225953 -0.148408 2.01971 2.97523 0.0025 
77 1 0.117917 0.0571936 0.00274335 0 0 0 -0.087626 -0.154236 -0.00489949 4.1094 -0.831997 -0.0999801 0.683746 0.00443528 -16.9147 0.0025 
78 1 0.0792234 0.0899921 0.00288405 0 0 0 -0.0524885 -0.221802 0.00825422 -0.903069 -6.37525 0.208659 -0.606043 0.272977 -23.8518 0.0025 
79 1 0.0580394 0.0745072 0.00294038 0 0 0 -0.123468 0.0503234 0.031712 0.143913 -6.84225 0.787639 -12.0905 3.46087 26.7793 0.0025 
80 1 0.075303 0.122434 0.0024988 0 0 0 -0.210947 0.278534 -0.00642518 -4.39438 3.81361 -0.132888 2.67701 2.94567 34.1065 0.0025 
81 1 0.0451533 0.110953 0.00274842 0 0 0 -0.0541497 0.014174 0.00138526 6.62601 -0.155583 -0.0260861 0.0877246 0.281514 18.7291 0.0025 
82 1 0.0285343 0.121719 0.00243807 0 0 0 0.185302 0.0439829 -0.013536 0 0 0 0.0337673 -0.142264 1.60698e-12 0.0025 
83 1 0.027586 0.113933 0.00255134 0 0 0 0 0 0 0 0 0 0 0 0 0.0025 
84 1 0.0661117 0.106712 0.00245512 0 0 0 -0.19646 0.286078 -0.028772 2.78798 1.92245 -0.401253 -4.36804 -0.813451 17.376 0.0025 
85 1 0.0995317 0.04965 0.00261433 0 0 0 -0.232413 0.0855025 -0.0311398 -1.58497 6.15126 -0.268067 -4.22398 -4.59034 22.7511 0.0025 
86 1 0.114213 0.0908459 0.0025113 0 0 0 -0.0511961 -0.26136 -0.0321874 -7.43251 4.70182 -0.458405 7.60876 -13.934 23.9809 0.0025 
87 1 0.110477 0.0649425 0.00292636 0 0 0 -0.139385 0.00561245 0.0222105 5.32435 -6.09497 -0.00809077 2.81591 -2.05234 17.4454 0.0025 
88 1 0.0606511 0.0569915 0.00261393 0 0 0 0.443294 -0.0903776 -0.00753294 -3.69227 2.74934 -0.0855381 1.29003 -4.31905 -87.9669 0.0025 
89 1 0.0737859 0.0738084 0.00265942 0 0 0 0.166378 0.172598 0.00433978 5.91788 3.94035 0.13349 1.71565 -1.5493 -2.7641 0.0025 
90 1 0.08846 0.10647 0.00260143 0 0 0 -0.0503334 0.016654 -0.0063185 -1.33903 -0.0693589 -0.490193 -1.11801 -0.706077 2.614 0.0025 
91 1 0.112462 0.0814608 0.002867 0 0 0 0.15408 -0.0939407 0.0155155 3.00227 1.0518 0.293933 1.8342 5.94932 -23.5879 0.0025 
92 1 0.045977 0.0251118 0.00262495 0 0 0 -0.0103774 -0.0201102 -0.0012903 -0.929316 -1.37785 -0.149755 -0.0109924 0.00366295 0.0776249 0.0025 
93 1 0.0346188 0.0533884 0.00296095 0 0 0 0.0326062 0.12136 0.0221652 0.933652 -2.11004 0.222335 5.26503 0.475855 -1.13542 0.0025 
94 1 0.0805777 0.0443354 0.00272789 0 0 0 0.223017 0.115241 0.00606998 2.57392 -5.86336 0.421466 -1.73524 0.269519 7.40725 0.0025 
95 1 0.0509167 0.0504849 0.00252471 0 0 0 -0.127298 -0.00694979 -0.0168272 3.59877 -2.22785 -0.449793 -0.268598 -7.99502 -9.04904 0.0025 
96 1 0.0705387 0.0519288 0.00242641 0 0 0 -0.0371064 0.0404701 -0.0434441 -7.24975 2.23707 -0.20822 1.12232 -3.88238 -35.6383 0.0025 
97 1 0.0253339 0.0866045 0.00298186 0 0 0 0.0351226 -0.117531 0.0680656 -3.45476 -0.486023 1.58186 -7.26153 -0.296662 62.3614 0.0025 
98 1 0.0864743 0.0256906 0.00288459 0 0 0 0.0227849 -0.0830858 0.0170747 1.55812 -4.52329 0.200134 -1.49544 -0.273966 40.6914 0.0025 
99 1 0.0461587 0.0754639 0.00281563 0 0 0 0.00458184 -0.125263 -0.000602489 4.82314 -2.83779 -0.00518006 -0.219676 0.37976 17.3181 0.0025 
100 1 0.0851713 0.0788948 0.002578 0 0 0 -0.0559704 -0.0698775 -0.0177357 1.30526 8.95479 -0.426415 -1.04089 -3.35807 54.3619 0.0025 
101 1 0.0306099 0.0718501 0.00275352 0 0 0 -0.0169973 -0.00713633 0.000294911 -2.48309 -1.05163 0.0433379 0.102886 -0.0403543 4.95306 0.0025 
102 1 0.106637 0.0452792 0.00239617 0 0 0 0.00685301 0.0840408 -0.068082 2.24633 0.836848 -0.37984 -1.99526 17.7438 -22.0295 0.0025 
103 1 0.0543212 0.0343852 0.00271802 0 0 0 -0.0461744 -0.0145009 -0.00929896 -3.15804 2.82653 -0.265024 -4.26202 -0.598222 35.3786 0.0025 
104 1 0.0571847 0.101689 0.00289525 0 0 0 -0.0201769 0.204874 0.00986569 -1.75339 5.77578 0.385825 1.50903 0.465132 15.6753 0.0025 
105 1 0.103019 0.119504 0.00270291 0 0 0 -0.23258 -0.0599159 -0.00728356 -2.51966 -0.453938 0.00257223 0.386438 -2.26842 5.42771 0.0025 
106 1 0.0271437 0.0832298 0.00276773 0 0 0 0.171256 0.0665093 -0.0104927 3.36826 -7.88529 -0.440011 21.6574 3.94654 28.6563 0.0025 
107 1 0.119572 0.0763549 0.0027597 0 0 0 -0.064882 -0.1652 0.00250778 -1.35399 -5.10312 0.1352 -0.470904 -0.0232341 -15.1751 0.0025 
108 1 0.0759229 0.0674137 0.00249082 0 0 0 0.0659642 -0.0127918 -0.00436654 4.00529 3.36131 -0.119418 0.696669 -0.728161 -10.5332 0.0025 
109 1 0.090825 0.0398489 0.00293709 0 0 0 0.210515 -0.121832 0.0148314 -0.69193 -6.78653 -0.0102325 -2.68417 -4.32713 42.826 0.0025 
110 1 0.0707425 0.0706775 0.00250432 0 0 0 0.0448475 -0.0554223 -0.0161287 -0.946555 -9.89691 -0.193387 1.21962 -1.01799 -0.738241 0.0025 
111 1 0.0363641 0.0456587 0.00294112 0 0 0 0.0383562 0.128496 0.00808979 0.830823 -6.21471 0.198259 0.0388335 -0.0864468 -5.91452 0.0025 
112 1 0.0839113 0.0965573 0.00285366 0 0 0 -0.0716935 0.0539178 0.0311236 -2.44653 4.38052 0.690009 2.58559 0.938153 19.5031 0.0025 
113 1 0.0854862 0.0514189 0.00315051 0 0 0 -0.118653 0.237248 0.0689494 -4.68563 4.38154 0.518593 7.59559 -1.398 -22.6926 0.0025 
114 1 0.0913566 0.110564 0.00265792 0 0 0 0.285502 -0.43222 -0.00670532 4.54156 -0.343883 -0.0739314 7.16629 3.38303 -28.0364 0.0025 
115 1 0.0351111 0.0409915 0.00260323 0 0 0 0.0142817 0.201733 -0.0437316 -5.18545 4.1541 -0.10217 -11.3747 -0.984062 21.3849 0.0025 
116 1 0.0798687 0.0495015 0.00265517 0 0 0 -0.249834 0.086165 0.000380256 -8.05287 2.68424 0.0182995 2.65139 7.84964 -28.1627 0.0025 
117 1 0.0301054 0.0615196 0.00246999 0 0 0 0.0961098 0.047091 -0.0125896 -6.65769 1.159 -0.259098 -0.185354 0.791889 0.814052 0.0025 
118 1 0.046857 0.116224 0.00248711 0 0 0 0.299716 -0.307101 -0.00747142 -2.77221 -5.00996 -0.0371412 -0.679733 -2.62675 56.1479 0.0025 
119 1 0.0892243 0.119556 0.00244253 0 0 0 0.121172 0.257677 -0.0532415 -7.85899 4.70993 -1.10937 -7.16092 -5.21809 -21.1045 0.0025 
120 1 0.0701281 0.0360362 0.0026378 0 0 0 0.00701123 -0.00475152 0.000511735 0.219478 -1.17365 0.0678411 -0.200568 0.265442 5.20708 0.0025 
121 1 0.0244621 0.0439007 0.00254765 0 0 0 -0.170108 0.127872 -0.0302012 2.8421 4.79002 -1.05002 3.97703 3.46312 -56.3515 0.0025 
122 1 0.104806 0.0902486 0.00280753 0 0 0 -0.186599 0.289501 0.00966658 -8.72645 5.6684 0.477386 4.01982 2.00846 12.8724 0.0025 
123 1 0.106239 0.094916 0.00252898 0 0 0 -0.0122234 0.0108782 -0.000318541 -2.1535 2.81554 -0.0879954 -0.0220886 -0.0458568 -4.00306 0.0025 
124 1 0.1059 0.0315505 0.00277891 0 0 0 -0.100068 -0.165587 0.00936578 9.45144 -8.84495 -0.0672734 -1.34051 1.84484 -4.05588 0.0025 
125 1 0.0601124 0.0667846 0.00281221 0 0 0 -0.0131934 0.00880872 -0.00146861 -0.170706 1.12777 -0.170496 -0.107898 0.0219824 0.0894203 0.0025 
126 1 0.0557028 0.087384 0.00268387 0 0 0 -0.178035 -0.0361631 -0.0291901 7.97988 -1.14438 -0.609957 2.13592 2.71645 8.51102 0.0025 
127 1 0.0709738 0.116593 0.00295899 0 0 0 -0.0497566 -0.0164361 0.0350717 1.55057 -0.555086 0.513138 0.933045 0.77549 2.1703 0.0025 
128 1 0.0999327 0.0680639 0.00245953 0 0 0 -0.214037 -0.133981 -0.056146 -0.291393 -4.9933 -0.475809 -0.978392 -1.92451 15.793 0.0025 
129 1 0.109344 0.0777657 0.00284742 0 0 0 -0.00422736 -0.0784547 0.0104249 -1.1879 1.43354 0.481071 6.61129 0.0677968 54.4789 0.0025 
130 1 0.0266688 0.0403393 0.00261829 0 0 0 -0.220632 0.00998333 -0.0255733 -4.95027 -1.1763 -0.651008 -4.27337 -10.5742 63.9933 0.0025 
131 1 0.048771 0.0680809 0.00269121 0 0 0 0.00293237 0.101847 0.00399684 -7.25192 -1.48759 0.294466 -4.59662 8.23703 -44.0803 0.0025 
132 1 0.0356185 0.0877552 0.00275862 0 0 0 -0.140033 -0.00218918 -0.0065862 -3.23441 1.53997 -0.14015 0.0495284 -0.0256235 0.780761 0.0025 
133 1 0.0655011 0.0993204 0.00280634 0 0 0 0.0163993 0.272823 0.00839401 -0.235482 9.78768 0.289773 8.42225 -14.1555 46.1432 0.0025 
134 1 0.0642612 0.0443954 0.00277135 0 0 0 -0.136716 -0.324796 0.0056745 -0.418875 -3.14314 -0.0455413 -4.9293 -3.14278 -22.8017 0.0025 
135 1 0.0304473 0.0929188 0.00272295 0 0 0 -0.183634 -0.0550818 0.00542821 0 0 0 0.0169389 -0.0564714 -7.18257e-13 0.0025 
136 1 0.109293 0.0541251 0.00280338 0 0 0 0.0362453 -0.182508 0.000273584 0.947253 -2.665 -0.00525019 0.40607 0.0253941 13.3732 0.0025 
137 1 0.0553472 0.0650073 0.00250072 0 0 0 0.154996 -0.305965 -0.0124657 3.24639 -4.49711 -0.269094 -5.08957 -4.17518 34.9618 0.0025 
138 1 0.0425993 0.105389 0.00288097 0 0 0 -0.20652 0.321771 0.0368051 -3.60427 3.62099 0.404962 8.24051 9.88928 -22.4323 0.0025 
139 1 0.0826618 0.0241917 0.00286609 0 0 0 0.0364058 0.0675565 0.0123523 -7.33127 10.3972 0.604999 2.93857 3.13272 -21.4422 0.0025 
140 1 0.0570258 0.113548 0.00255618 0 0 0 0.146647 -0.078682 -0.0114699 2.92781 -1.57373 -0.243117 -0.0135076 -0.0258379 0.00432627 0.0025 
141 1 0.0416738 0.035606 0.00293759 0 0 0 0.254037 0.0440626 0.0283166 6.90506 -3.78092 0.45954 -7.34765 0.374143 32.072 0.0025 
142 1 0.0869455 0.0639325 0.00262209 0 0 0 -0.0405649 -0.21069 -0.0225804 -7.52007 0.767579 0.00552203 3.87684 -2.1557 2.64098 0.0025 
143 1 0.0600231 0.0780414 0.00238393 0 0 0 -0.0259223 -0.0108769 -0.0832166 0.300502 7.27965 -0.918042 -0.473406 -3.24631 3.62608 0.0025 
144 1 0.0306795 0.0411943 0.00307208 0 0 0 -0.320362 -0.252607 0.0681154 2.88581 -10.3233 1.5349 -11.9016 7.47948 -64.963 0.0025 
145 1 0.121775 0.0673193 0.00270694 0 0 0 0.0709931 -0.00736234 -0.000406787 5.88759 -0.714066 -0.0370124 0.399786 0.1088 -7.21321 0.0025 
146 1 0.0928969 0.117822 0.00292658 0 0 0 0.126463 -0.103626 0.0330062 14.3509 -0.621727 0.952829 -3.61561 -4.20428 -61.7416 0.0025 
147 1 0.0697317 0.099382 0.00300398 0 0 0 0.102628 0.0898923 0.0497787 1.74372 -9.91603 0.441378 8.73333 7.19228 -72.4002 0.0025 
148 1 0.0636112 0.114745 0.00262386 0 0 0 -0.136496 0.0906898 -0.0211588 -7.43343 -3.92807 -0.608651 3.02199 -1.15771 42.833 0.0025 
149 1 0.0825891 0.0663265 0.00304331 0 0 0 -0.250763 -0.174875 0.0317227 -0.228071 -6.93188 0.387998 -1.98778 -1.11303 10.4028 0.0025 
150 1 0.0438486 0.100957 0.00256021 0 0 0 0.0549284 -0.0489205 -0.0342718 -1.2136 -4.15084 -0.0725304 -2.88324 1.90144 -15.7506 0.0025 
151 1 0.0628354 0.110127 0.00271037 0 0 0 0.0958549 -0.020255 -0.00652503 -4.55918 -1.45194 0.173852 0.356247 0.372032 16.4552 0.0025 
152 1 0.101265 0.0537124 0.00298858 0 0 0 0.0199008 0.176661 0.0172182 -0.109028 5.35133 0.115955 10.9159 1.18857 -101.202 0.0025 
153 1 0.058989 0.106719 0.00296196 0 0 0 -0.245765 -0.28367 0.0144486 0 0 0 -1.49618 -0.164235 -27.9791 0.0025 
154 1 0.0973884 0.0571436 0.00281947 0 0 0 -0.0671116 -0.0780608 0.000546695 -2.35719 0.0403747 0.020893 0.177687 -0.203225 5.13709 0.0025 
155 1 0.0978371 0.122942 0.00306528 0 0 0 -0.0322821 0.0393144 0.0309532 -2.35752 -4.49032 0.881938 -1.16588 0.108495 4.69614 0.0025 
156 1 0.0496621 0.034617 0.00290713 0 0 0 -0.0303505 -0.316709 0.00770153 4.09221 -9.034 -0.00785322 4.89685 4.4095 -16.7664 0.0025 
157 1 0.0750497 0.0834283 0.00286333 0 0 0 0.0262335 -0.0210625 0.0239444 4.68516 -5.89516 -0.00343524 -2.65965 -1.08008 -2.95027 0.0025 
158 1 0.100169 0.0860621 0.0027131 0 0 0 0.30394 -0.266745 -0.0096016 5.35828 2.97861 -0.545481 -3.07628 -2.08348 49.4339 0.0025 
159 1 0.0867033 0.110733 0.00278269 0 0 0 0.3518 -0.0854383 -0.00875714 -3.70869 1.53332 0.361223 2.43281 7.60933 14.8894 0.0025 
160 1 0.119681 0.111578 0.00263784 0 0 0 0.0391623 0.0764966 0.00204713 1.7778 3.47261 0.0959572 -0.00106414 0.000544784 2.20579e-14 0.0025 
161 1 0.076078 0.0617938 0.00274142 0 0 0 0.321211 0.193317 0.0338722 6.58181 -1.25542 0.480848 2.79809 -7.92198 57.3738 0.0025 
162 1 0.0276612 0.0361111 0.00302618 0 0 0 0.0252617 0.0124191 0.0395998 0.884683 -0.22435 0.890347 1.91772 4.93705 -0.638764 0.0025 
163 1 0.121788 0.0910179 0.00286672 0 0 0 -0.072703 -0.0986665 0.00593975 -3.52624 0.0810946 0.192393 5.16877 14.0543 -22.1555 0.0025 
164 1 0.0503914 0.10712 0.00271503 0 0 0 0.245277 0.235398 -0.00313051 3.15784 2.39321 -0.0373344 -5.30244 -8.30609 -32.067 0.0025 
165 1 0.0544553 0.0274076 0.00283959 0 0 0 -0.129113 -0.19458 -0.000537158 2.60384 2.75143 -0.0979405 2.92713 -1.94627 14.7854 0.0025 
166 1 0.0842035 0.0357757 0.00255762 0 0 0 0.0455899 -0.160985 -0.0142452 2.35505 -8.87438 -0.568855 -3.56684 3.46083 4.98678 0.0025 
167 1 0.0352972 0.0993601 0.00284699 0 0 0 0.00034994 0.00255379 0.000133561 0.127585 0.958827 0.0505657 0.0176337 -0.0220714 0.375834 0.0025 
168 1 0.0880697 0.0971137 0.00250839 0 0 0 -0.115981 0.201436 -0.0365842 0.743251 0.470292 -0.700998 0.480833 3.8171 30.4428 0.0025 
169 1 0.0932692 0.0703553 0.00295299 0 0 0 -0.168334 -0.23206 0.00589333 -0.346298 -0.819668 0.0239924 0.973386 -1.5662 -32.2106 0.0025 
170 1 0.111318 0.0955984 0.00308187 0 0 0 0.162944 -0.263698 0.0266624 1.00598 0.416823 0.334658 3.73102 3.18528 -63.3701 0.0025 
171 1 0.0789732 0.0276578 0.00303476 0 0 0 -0.00909133 0.189158 0.0209972 2.97128 -0.196119 0.151459 0.277556 0.167082 -9.03085 0.0025 
172 1 0.0692993 0.090219 0.00286118 0 0 0 -0.156761 -0.0596316 0.00781773 -7.99369 -8.10861 0.358465 -1.6411 -0.292837 -2.40022 0.0025 
173 1 0.0252395 0.0665127 0.00258984 0 0 0 -0.00729345 -0.261494 -0.0174916 -0.158689 -11.9406 -0.892511 0.927801 -0.239888 3.19579 0.0025 
174 1 0.066719 0.117321 0.00284142 0 0 0 -0.182487 0.243291 0.0122799 3.8928 4.95676 0.683064 0.934645 -6.39493 -18.3794 0.0025 
175 1 0.107904 0.0821508 0.00298763 0 0 0 0.0625648 -0.101099 0.0527941 4.33612 4.12441 0.502542 -2.11341 -8.67544 -36.9791 0.0025 
176 1 0.105842 0.0498255 0.00302392 0 0 0 -0.136553 0.652638 0.0508723 -3.60555 3.12733 0.262784 13.0707 13.8772 -48.0787 0.0025 
177 1 0.103098 0.109735 0.00309823 0 0 0 -0.0431521 -0.0293151 0.0441732 -0.00746599 1.8336 0.35527 0.0451318 3.35281 34.8095 0.0025 
178 1 0.0928241 0.0865723 0.00275193 0 0 0 -0.178237 -0.357055 0.00529147 -6.8565 1.00648 -0.219725 -4.49075 1.631 12.5639 0.0025 
179 1 0.0987978 0.113775 0.00267219 0 0 0 -0.101962 -0.28353 0.00947505 -5.16954 -2.46579 0.125077 -6.37654 -1.39988 27.5073 0.0025 
180 1 0.0345598 0.0611959 0.00257752 0 0 0 0.0226303 0.239914 -0.0394914 -3.82962 6.46968 -0.685692 -8.89107 -0.299345 -13.0034 0.0025 
181 1 0.12179 0.0802823 0.00267896 0 0 0 0.128853 -0.0195789 -0.00420164 4.62444 4.5972 -0.0391755 -0.478573 -0.0753722 -16.0086 0.0025 
182 1 0.0440917 0.0595285 0.00267043 0 0 0 -0.0581136 0.0561508 0.000605044 2.98207 -3.48197 0.0812184 -2.32909 -1.69574 4.344 0.0025 
183 1 0.0254488 0.104381 0.00250569 0 0 0 0.00696918 0.00039108 -0.000333696 1.82549 0.0975884 -0.0878888 -0.020599 -0.00130474 -0.431753 0.0025 
184 1 0.0318238 0.0798099 0.00285841 0 0 0 0.261053 -0.108569 0.026435 3.2902 -1.21169 0.302983 0.990929 -13.361 33.5579 0.0025 
185 1 0.0895266 0.0787319 0.00294365 0 0 0 0.112493 -0.17508 0.0327881 4.06743 -0.5179 0.622882 -3.52215 -2.21407 -40.3836 0.0025 
186 1 0.0657946 0.0339778 0.00257446 0 0 0 0.00346754 -0.01266 -0.00490303 1.17604 -0.655292 -0.487412 0.809961 -0.900776 2.38944 0.0025 
187 1 0.102575 0.0341182 0.00291913 0 0 0 0.0618183 -0.367199 0.0332109 -9.19367 -2.39563 1.02471 -5.96242 -0.464013 9.75237 0.0025 
188 1 0.111762 0.0865943 0.00277603 0 0 0 -0.0774619 0.187913 0.00401996 -2.56222 -2.32639 0.253441 -2.55943 -0.638313 -16.9186 0.0025 
189 1 0.122658 0.104506 0.00273814 0 0 0 0.143164 0.102888 -0.00725658 -1.82549 -0.0975884 0.0878888 0.0235783 -0.0655236 -0.431753 0.0025 
190 1 0.0878726 0.0900415 0.00263617 0 0 0 -0.0641191 0.171605 0.00908036 -7.92322 -0.102655 0.277514 -0.469383 3.85208 -16.0682 0.0025 
191 1 0.0642796 0.0644644 0.00299926 0 0 0 0.0404588 -0.00671531 0.00174068 4.04684 -0.460205 0.213968 -0.144408 0.316902 -1.02058 0.0025 
192 1 0.0810765 0.122651 0.00271863 0 0 0 -0.0333339 0.263155 0.00887384 -7.61332 -5.74485 -0.257998 1.89063 -5.73542 -1.31292 0.0025 
193 1 0.068999 0.111663 0.0029044 0 0 0 -0.00787095 -0.00130936 0.000386098 -2.37508 -0.379796 0.11851 -0.0571437 0.102517 -0.817589 0.0025 
194 1 0.0620237 0.0715898 0.00272857 0 0 0 0.191839 -0.154971 -0.00855484 -8.40176 5.17813 0.198725 1.4524 1.6542 6.14661 0.0025 
195 1 0.116646 0.0499722 0.00304942 0 0 0 0.0272828 0.293727 0.0223036 1.01822 5.20444 0.358498 4.12818 3.13279 -46.4735 0.0025 
196 1 0.0637134 0.120861 0.00258965 0 0 0 0.149116 0.0786001 0.00116013 3.18631 5.41588 -0.107388 0.0236007 -0.946911 10.353 0.0025 
197 1 0.038578 0.025756 0.00294612 0 0 0 0 0 0 0 0 0 0 0 0 0.0025 
198 1 0.0989847 0.0295876 0.00246514 0 0 0 0.0122067 0.203708 -0.041817 -3.73224 3.59151 -0.950682 -2.32425 2.69849 5.83916 0.0025 
199 1 0.033311 0.0574365 0.00303334 0 0 0 -0.230308 0.0749597 0.0490614 -4.11642 -3.28948 1.19836 -10.3102 -1.46024 -18.074 0.0025 
200 1 0.0567843 0.091773 0.00293272 0 0 0 0.0839848 0.161779 0.0133142 3.1622 -7.28987 0.204779 2.85784 0.301764 -12.3216 0.0025 
201 1 0.110493 0.0495733 0.00272419 0 0 0 0.220664 -0.15158 -0.00921908 4.29382 -1.99089 -0.245527 -3.09513 1.85333 -60.5667 0.0025 
202 1 0.0524122 0.05513 0.00262923 0 0 0 0.0099082 -0.130687 -0.0106805 -0.616438 1.75317 -0.282058 1.11311 11.6897 49.9911 0.0025 
203 1 0.114303 0.102113 0.00289111 0 0 0 -0.00571524 -0.167267 -0.0051523 4.40284 -0.141673 -0.240871 -0.147234 -0.920191 -49.0795 0.0025 
204 1 0.100911 0.076395 0.00281043 0 0 0 0.236534 0.285208 0.00814591 5.93624 2.34765 0.182952 -0.232502 -2.4634 -27.077 0.0025 
205 1 0.110682 0.0736188 0.00262189 0 0 0 0.256923 -0.099979 -0.01516 -2.30463 -5.93582 -0.237198 -0.783455 3.11245 -1.98437 0.0025 
206 1 0.0769736 0.0412819 0.00263161 0 0 0 -0.0129101 0.041433 -0.0100561 -0.565738 -11.297 0.15937 0.453156 -1.56224 -42.165 0.0025 
207 1 0.0527275 0.0687487 0.00250517 0 0 0 0.274327 -0.154192 -0.0445455 2.99056 2.40174 -0.42403 3.78957 -0.704097 -0.913848 0.0025 
208 1 0.118591 0.10138 0.0030248 0 0 0 0.197452 -0.0948283 0.0167696 5.73993 4.15888 0.478086 1.18301 -2.23176 -6.93306 0.0025 
209 1 0.0300882 0.086987 0.0025527 0 0 0 0.0327492 0.0155929 -0.000966236 4.39674 2.55706 -0.134795 -0.345168 1.21993 -0.886789 0.0025 
210 1 0.0830483 0.0828838 0.00260758 0 0 0 0.00776113 0.115725 0.00286021 2.39198 1.57512 -0.00757583 0.793187 -2.48462 43.5234 0.0025 
211 1 0.0380898 0.0328921 0.00304443 0 0 0 0.110455 0.0600345 0.0276394 -1.50311 -6.34298 0.795436 1.35233 -2.12512 10.1469 0.0025 
212 1 0.0394971 0.0545575 0.00291971 0 0 0 -0.379353 -0.18657 0.0282034 -6.4283 -0.0958224 0.224481 -12.4698 5.6117 -46.5995 0.0025 
213 1 0.0896385 0.0497041 0.0026822 0 0 0 -0.0817488 0.040181 -0.00291807 3.60893 -0.0888869 -0.0833564 3.01356 8.01425 16.3405 0.0025 
214 1 0.0728536 0.106456 0.0025824 0 0 0 0.22234 0.210735 -0.0169355 4.40749 4.307 -0.360349 -2.90654 2.66543 -5.2272 0.0025 
215 1 0.079964 0.0374372 0.00302639 0 0 0 0.134621 -0.19155 0.0251104 -1.10616 2.64263 0.585806 -0.533895 1.49601 18.1178 0.0025 
216 1 0.0241366 0.109628 0.00250066 0 0 0 0 0 0 0 0 0 0 0 0 0.0025 
217 1 0.0645545 0.0488848 0.00238551 0 0 0 -0.0678431 0.0956766 -0.0552519 -8.1032 8.25349 -1.05083 -6.69987 -3.04666 -8.77663 0.0025 
218 1 0.0403843 0.097895 0.00303372 0 0 0 -0.344805 -0.248436 0.0317479 -4.6643 -0.3501 0.43798 -1.82658 4.51163 17.5949 0.0025 
219 1 0.116301 0.12031 0.00288969 0 0 0 0.306846 -0.0583767 0.00607252 6.96776 -1.23501 0.113812 -0.192065 -1.85144 -8.08199 0.0025 
220 1 0.107015 0.106694 0.00283911 0 0 0 -0.0610647 0.290444 0.0139928 4.20145 -0.969958 0.299246 4.40941 -3.44738 2.27349 0.0025 
221 1 0.0551378 0.0783057 0.0029888 0 0 0 -0.248966 0.0413131 0.0138981 4.58704 0.164889 0.121848 -3.44914 3.62328 -54.9 0.0025 
222 1 0.0528599 0.115782 0.00289857 0 0 0 -0.140291 0.0715248 0.01201 -1.6115 -0.446889 0.38875 -0.0312573 -0.142695 -1.27666 0.0025 
223 1 0.0527876 0.0386909 0.00255759 0 0 0 -0.248552 -0.0713196 -0.0178038 5.03696 2.06728 -0.363101 -3.56884 5.2958 12.4494 0.0025 
224 1 0.0871521 0.0557692 0.00252361 0 0 0 0.0821776 0.330003 -0.0213674 3.89043 -2.94981 -0.365021 -12.9202 1.05672 -39.7883 0.0025 
225 1 0.0858686 0.0303134 0.00278308 0 0 0 -0.27805 0.236902 -0.00629295 -8.09751 6.00854 -0.179237 -0.60126 1.52257 -31.6886 0.0025 
226 1 0.0831967 0.0707183 0.00261699 0 0 0 -0.0956202 0.0502879 -0.017734 -0.697906 3.84229 -0.304763 -6.3964 -0.772119 -56.5949 0.0025 