ITEM: TIMESTEP
1000
ITEM: NUMBER OF ATOMS
415
ITEM: BOX BOUNDS pp pp pp
0.0055 0.140559
0.0055 0.140559
0 0.0055
ITEM: ATOMS id type x y z ix iy iz vx vy vz fx fy fz omegax omegay omegaz radius 
1 1 0.0394093 0.107373 0.00285638 0 0 0 -0.00053375 0.0337206 0.00240283 -0.0325523 2.46642 0.178163 0.00145588 -0.00205208 0.0288206 0.0025 
2 1 0.0216914 0.125158 0.00271246 0 0 0 0 0 0 0 0 0 0 0 0 0.0025 
3 1 0.0815595 0.0762995 0.00279357 0 0 0 -0.0601278 0.0117559 0.00204432 -2.90212 0.56741 0.100984 -0.000154218 -0.000788777 2.52234e-15 0.0025 
4 1 0.109158 0.0587417 0.00266083 0 0 0 0 0 0 0 0 0 0 0 0 0.0025 
5 1 0.0354407 0.0633184 0.00279039 0 0 0 0.041842 0.0549385 0.00318823 1.83029 2.40952 0.143101 -0.000549555 0.00107475 -0.0110811 0.0025 
6 1 0.0367817 0.0452722 0.00252862 0 0 0 0.00967381 -0.0248353 -0.000363528 0.818513 -2.10134 -0.0311871 -3.22894e-05 -1.25773e-05 -1.98607e-15 0.0025 
7 1 0.0262579 0.0256418 0.0025951 0 0 0 0 0 0 0 0 0 0 0 0 0.0025 
8 1 0.082607 0.0487132 0.00286502 0 0 0 0 0 0 0 0 0 0 0 0 0.0025 
9 1 0.0509925 0.031608 0.00262309 0 0 0 -0.014243 -0.0580323 -0.00431912 -1.70653 -1.90282 -0.265224 -0.0893785 -0.047891 0.913512 0.0025 
10 1 0.118345 0.090387 0.00263632 0 0 0 0 0 0 0 0 0 0 0 0 0.0025 
11 1 0.0761702 0.0469851 0.0026273 0 0 0 0 0 0 0 0 0 0 0 0 0.0025 
12 1 0.0079296 0.0517988 0.00270611 0 0 0 0 0 0 0 0 0 0 0 0 0.0025 
13 1 0.0940308 0.128852 0.0027739 0 0 0 0.022817 -0.00811988 0.00110404 2.04481 -0.805632 0.103735 1.53612e-06 0.000124722 0.000883513 0.0025 
14 1 0.0760855 0.10944 0.00275284 0 0 0 0 0 0 0 0 0 0 0 0 0.0025 
15 1 0.104386 0.0791324 0.00265913 0 0 0 0.0015052 0.0149607 -0.000610386 0.208859 2.01687 -0.0828684 -0.0146647 0.0231678 0.531442 0.0025 
16 1 0.0425739 0.0775379 0.00281331 0 0 0 4.38121e-05 1.641e-05 4.93414e-08 0.106668 0.0398089 0.000118428 -4.8117e-06 1.70992e-05 -0.00141439 0.0025 
17 1 0.0759767 0.0375026 0.00252304 0 0 0 0 0 0 0 0 0 0 0 0 0.0025 
18 1 0.10191 0.0561543 0.00278275 0 0 0 0 0 0 0 0 0 0 0 0 0.0025 
19 1 0.0839473 0.0196311 0.00273979 0 0 0 0 0 0 0 0 0 0 0 0 0.0025 
20 1 0.0699827 0.079609 0.00258028 0 0 0 -0.0386118 -0.00407503 -0.00252222 -2.57292 -0.271542 -0.171003 -4.7196e-05 0.000447192 8.52306e-15 0.0025 
21 1 0.066631 0.0384997 0.0029201 0 0 0 0 0 0 0 0 0 0 0 0 0.0025 
22 1 0.0981513 0.0970728 0.00253726 0 0 0 0 0 0 0 0 0 0 0 0 0.0025 
23 1 0.132328 0.0703523 0.00272491 0 0 0 0.00538578 -0.00670047 0.000300095 0.855481 -1.06431 0.0480274 3.81813e-06 3.06898e-06 -1.02258e-16 0.0025 
24 1 0.122471 0.0187147 0.00254829 0 0 0 0 0 0 0 0 0 0 0 0 0.0025 
25 1 0.105452 0.0371169 0.00250764 0 0 0 0 0 0 0 0 0 0 0 0 0.0025 
26 1 0.0449243 0.00837317 0.00297806 0 0 0 0 0 0 0 0 0 0 0 0 0.0025 
27 1 0.0435138 0.072363 0.00295005 0 0 0 0 0 0 0 0 0 0 0 0 0.0025 
28 1 0.072179 0.0913917 0.00271556 0 0 0 0 0 0 0 0 0 0 0 0 0.0025 
29 1 0.121362 0.0121499 0.0028586 0 0 0 0 0 0 0 0 0 0 0 0 0.0025 
30 1 0.131499 0.0146667 0.00272971 0 0 0 0.0333407 0.0451776 0.0021619 1.66922 2.35661 0.113211 0.0287311 0.0273266 -1.00621 0.0025 
31 1 0.0964107 0.0146972 0.00284515 0 0 0 0 0 0 0 0 0 0 0 0 0.0025 
32 1 0.0968288 0.0199688 0.00289255 0 0 0 0 0 0 0 0 0 0 0 0 0.0025 
33 1 0.10159 0.0854051 0.00285024 0 0 0 0 0 0 0 0 0 0 0 0 0.0025 
34 1 0.0501855 0.104193 0.00289709 0 0 0 0 0 0 0 0 0 0 0 0 0.0025 
35 1 0.0639051 0.00786626 0.00253515 0 0 0 0 0 0 0 0 0 0 0 0 0.0025 
36 1 0.136429 0.0125997 0.00277236 0 0 0 0 0 0 0 0 0 0 0 0 0.0025 
37 1 0.0283087 0.0536391 0.00280216 0 0 0 0 0 0 0 0 0 0 0 0 0.0025 
38 1 0.035031 0.0497667 0.00259531 0 0 0 -0.00967381 0.0248353 0.000363528 -0.818513 2.10134 0.0311871 -3.22894e-05 -1.25773e-05 -1.98607e-15 0.0025 
39 1 0.0475714 0.0875165 0.00273417 0 0 0 -0.00612642 -0.00842527 1.15629e-05 -0.879166 -1.20906 0.00167318 2.0443e-07 -1.48651e-07 2.88573e-16 0.0025 
40 1 0.0927256 0.0725391 0.00250782 0 0 0 0 0 0 0 0 0 0 0 0 0.0025 
41 1 0.0317018 0.0857746 0.00271681 0 0 0 0 0 0 0 0 0 0 0 0 0.0025 
42 1 0.0275651 0.115379 0.00252854 0 0 0 0 0 0 0 0 0 0 0 0 0.0025 
43 1 0.0421996 0.134504 0.0025763 0 0 0 0 0 0 0 0 0 0 0 0 0.0025 
44 1 0.0998128 0.115218 0.00290205 0 0 0 -0.00876118 0.0220469 0.00130087 -0.792282 1.99372 0.119177 -9.61101e-05 -3.8193e-05 1.28436e-16 0.0025 
45 1 0.0289452 0.0808889 0.00280611 0 0 0 0 0 0 0 0 0 0 0 0 0.0025 
46 1 0.0221144 0.0754002 0.00269945 0 0 0 0 0 0 0 0 0 0 0 0 0.0025 
47 1 0.00953442 0.0128244 0.00255125 0 0 0 -0.000674356 0.000247845 -2.73747e-05 -0.453373 0.166638 -0.0184356 0.00102384 0.000458326 -0.021072 0.0025 
48 1 0.104975 0.120401 0.00256386 0 0 0 0 0 0 0 0 0 0 0 0 0.0025 
49 1 0.0518197 0.0178634 0.00284293 0 0 0 0 0 0 0 0 0 0 0 0 0.0025 
50 1 0.0626943 0.052747 0.00267835 0 0 0 0 0 0 0 0 0 0 0 0 0.0025 
51 1 0.0389956 0.039038 0.00287295 0 0 0 0 0 0 0 0 0 0 0 0 0.0025 
52 1 0.0834957 0.129032 0.00262597 0 0 0 -8.3239e-05 0.00030439 -2.35482e-05 -0.0710467 0.259805 -0.0201275 2.65863e-09 7.27033e-10 1.04105e-19 0.0025 
53 1 0.101459 0.0467526 0.00295043 0 0 0 0 0 0 0 0 0 0 0 0 0.0025 
54 1 0.0151053 0.0457963 0.00291759 0 0 0 0 0 0 0 0 0 0 0 0 0.0025 
55 1 0.0126178 0.0811609 0.00265748 0 0 0 0.00475398 -0.0272988 -0.00064104 0.469104 -2.67192 -0.0634631 0.00330077 0.0066684 -0.259224 0.0025 
56 1 0.0630419 0.0879604 0.0027676 0 0 0 0 0 0 0 0 0 0 0 0 0.0025 
57 1 0.0394925 0.10258 0.002509 0 0 0 0.0119412 -0.030415 -0.00288315 1.57813 -2.00866 -0.243143 -0.0110556 0.0118986 -0.172048 0.0025 
58 1 0.116731 0.0303899 0.00274739 0 0 0 -0.0164822 0.0763571 0.00287557 -0.645764 2.99162 0.115833 -0.00175663 -0.000379181 -1.36371e-13 0.0025 
59 1 0.0548882 0.134006 0.0025099 0 0 0 0 0 0 0 0 0 0 0 0 0.0025 
60 1 0.10831 0.11169 0.00252848 0 0 0 0 0 0 0 0 0 0 0 0 0.0025 
61 1 0.0649782 0.081644 0.00262511 0 0 0 0 0 0 0 0 0 0 0 0 0.0025 
62 1 0.0843063 0.111763 0.00296446 0 0 0 0 0 0 0 0 0 0 0 0 0.0025 
63 1 0.133087 0.0298929 0.00268398 0 0 0 0 0 0 0 0 0 0 0 0 0.0025 
64 1 0.0564475 0.0436731 0.00274415 0 0 0 -0.027874 -0.0196833 0.00427431 -0.712085 -1.18668 0.17923 -0.0495056 0.0423349 -1.37339 0.0025 
65 1 0.0295566 0.0928144 0.0029846 0 0 0 0 0 0 0 0 0 0 0 0 0.0025 
66 1 0.134 0.0237272 0.00253025 0 0 0 -0.0115932 -0.00746315 -0.000616208 -1.42659 -0.918372 -0.0765626 -1.12775e-05 1.75184e-05 -9.91191e-16 0.0025 
67 1 0.0201081 0.131547 0.00296645 0 0 0 -0.00404337 -0.00387882 0.000225333 -0.909118 -0.869514 0.0509249 0.00939159 0.000170236 0.171429 0.0025 
68 1 0.070177 0.0132721 0.00286202 0 0 0 -0.0234445 0.0234773 -0.00068597 -1.32791 0.533038 -0.0208629 0.0019497 -0.00556439 -0.234678 0.0025 
69 1 0.0824979 0.105937 0.00274051 0 0 0 0 0 0 0 0 0 0 0 0 0.0025 
70 1 0.0414461 0.0309777 0.00267022 0 0 0 -0.000119433 -0.000140214 4.15751e-06 -0.134051 -0.157375 0.00467139 1.66339e-10 -1.41686e-10 2.29837e-20 0.0025 
71 1 0.0661886 0.0310501 0.00269232 0 0 0 0 0 0 0 0 0 0 0 0 0.0025 
72 1 0.054312 0.0374952 0.00290164 0 0 0 0.00102458 0.000417141 4.32266e-05 0.464486 0.190194 0.0196776 0.00283731 0.00276288 -0.0939113 0.0025 
73 1 0.0803591 0.0842876 0.00251713 0 0 0 0 0 0 0 0 0 0 0 0 0.0025 
74 1 0.105112 0.133251 0.00251537 0 0 0 -0.0110029 -0.0834493 -0.00759611 -0.396914 -3.01031 -0.282293 -0.00556851 0.000734218 1.7236e-14 0.0025 
75 1 0.129359 0.0366751 0.00260287 0 0 0 -0.000454189 -5.17017e-05 -3.91014e-06 -0.323164 -0.0367867 -0.00278687 -8.86672e-11 7.78924e-10 3.80221e-19 0.0025 
76 1 0.118541 0.136192 0.00292215 0 0 0 2.17465e-05 6.23001e-06 8.39233e-07 0.0696961 0.0199668 0.0026907 -5.87768e-13 2.05166e-12 -1.33335e-21 0.0025 
77 1 0.132663 0.0523694 0.00275027 0 0 0 0 0 0 0 0 0 0 0 0 0.0025 
78 1 0.081308 0.0957554 0.0028754 0 0 0 0 0 0 0 0 0 0 0 0 0.0025 
79 1 0.0532112 0.0752625 0.00290186 0 0 0 0.0413068 -0.068026 -0.000567394 1.59306 -2.62354 -0.0225067 -0.000313577 -0.000190411 3.64457e-14 0.0025 
80 1 0.0764568 0.137742 0.00250855 0 0 0 0 0 0 0 0 0 0 0 0 0.0025 
81 1 0.0372148 0.123102 0.00273852 0 0 0 -0.0267084 0.00255902 0.000256245 -2.25103 0.215678 0.0218987 -2.35437e-06 -2.45725e-05 4.93657e-15 0.0025 
82 1 0.013126 0.13722 0.0025001 0 0 0 0.00174232 0.000413553 -0.000115992 0.620573 0.147297 -0.0414535 4.12322e-08 -1.73714e-07 -1.43608e-17 0.0025 
83 1 0.0128922 0.127159 0.00255134 0 0 0 0 0 0 0 0 0 0 0 0 0.0025 
84 1 0.0644339 0.116897 0.00251047 0 0 0 0 0 0 0 0 0 0 0 0 0.0025 
85 1 0.109265 0.0423101 0.00274224 0 0 0 -0.0199486 -0.0702902 -0.00319287 -1.30552 -1.70559 -0.179427 -0.0363607 -0.00282957 0.290667 0.0025 
86 1 0.128139 0.0978168 0.00263312 0 0 0 -0.0493268 -0.0215737 -0.00398397 -2.84682 -1.27305 -0.23053 0.0622783 -0.0625605 -0.429022 0.0025 
87 1 0.123883 0.0622493 0.00281522 0 0 0 -0.0621115 -0.0498177 0.00473402 -2.38255 -1.91097 0.186798 0.00193342 -0.00241054 -3.50017e-14 0.0025 
88 1 0.0554057 0.0524014 0.00264125 0 0 0 0 0 0 0 0 0 0 0 0 0.0025 
89 1 0.0738574 0.0738733 0.00265607 0 0 0 0 0 0 0 0 0 0 0 0 0.0025 
90 1 0.0934917 0.117267 0.00260423 0 0 0 0 0 0 0 0 0 0 0 0 0.0025 
91 1 0.125066 0.0849467 0.00280951 0 0 0 -0.0425283 -0.00144511 0.0024034 -2.59727 -0.485419 0.154919 -0.00216325 -0.00102327 -0.0388321 0.0025 
92 1 0.037234 0.00962625 0.00262534 0 0 0 0 0 0 0 0 0 0 0 0 0.0025 
93 1 0.022201 0.0465436 0.00290465 0 0 0 0 0 0 0 0 0 0 0 0 0.0025 
94 1 0.081985 0.0341319 0.00271444 0 0 0 0.0470933 0.0446425 0.000682702 2.17297 2.05988 0.0322695 -0.000204888 0.000216136 4.01724e-14 0.0025 
95 1 0.0440263 0.043184 0.00254171 0 0 0 0 0 0 0 0 0 0 0 0 0.0025 
96 1 0.0693891 0.0448265 0.00254693 0 0 0 -0.0162045 0.0272936 -0.000571435 -1.23239 2.07575 -0.0441292 6.2236e-05 3.69501e-05 -8.92401e-15 0.0025 
97 1 0.0101193 0.0903081 0.00286466 0 0 0 -0.0302528 0.077094 0.00159773 -1.15832 2.96515 0.0632925 -0.00132173 -0.00112053 0.0284684 0.0025 
98 1 0.090946 0.010398 0.00285596 0 0 0 0 0 0 0 0 0 0 0 0 0.0025 
99 1 0.0378372 0.0759658 0.00281042 0 0 0 0.0250982 0.0377322 0.00037117 1.40885 2.23562 0.0226868 -7.59442e-05 6.44737e-05 -0.00141415 0.0025 
100 1 0.0891582 0.0813145 0.00259704 0 0 0 0 0 0 0 0 0 0 0 0 0.0025 
101 1 0.0168988 0.0714707 0.00275345 0 0 0 0 0 0 0 0 0 0 0 0 0.0025 
102 1 0.118189 0.0353493 0.00255938 0 0 0 -0.00358406 0.002098 -1.87185e-05 -0.888934 0.523544 -0.00470064 0.00011698 0.00151612 0.147506 0.0025 
103 1 0.0478743 0.0226526 0.00272255 0 0 0 0 0 0 0 0 0 0 0 0 0.0025 
104 1 0.0520663 0.11071 0.00288724 0 0 0 0 0 0 0 0 0 0 0 0 0.0025 
105 1 0.113743 0.134818 0.00273692 0 0 0 -2.17465e-05 -6.23001e-06 -8.39233e-07 -0.0696961 -0.0199668 -0.0026907 -5.87768e-13 2.05166e-12 -1.33335e-21 0.0025 
106 1 0.011858 0.0858871 0.00277065 0 0 0 0.0254989 -0.0497952 -0.000956685 0.68922 -0.293227 0.000170584 0.00197904 0.00554788 -0.230755 0.0025 
107 1 0.134689 0.0776021 0.00275786 0 0 0 0 0 0 0 0 0 0 0 0 0.0025 
108 1 0.0771276 0.0662229 0.00250204 0 0 0 0 0 0 0 0 0 0 0 0 0.0025 
109 1 0.0958892 0.0292101 0.0028981 0 0 0 0 0 0 0 0 0 0 0 0 0.0025 
110 1 0.0696183 0.0684471 0.00256779 0 0 0 0.0192916 0.061657 -0.00248438 0.870186 2.96346 -0.118734 -0.0469119 -0.0153259 -0.736486 0.0025 
111 1 0.0243073 0.035702 0.00290545 0 0 0 0.00459546 0.020871 0.000757301 0.442306 2.0088 0.0737865 -4.96272e-05 1.09271e-05 -2.06763e-16 0.0025 
112 1 0.0877372 0.104241 0.00280114 0 0 0 0 0 0 0 0 0 0 0 0 0.0025 
113 1 0.0903423 0.0440032 0.00295759 0 0 0 -0.0780873 0.0302529 0.00405537 -2.85607 1.10651 0.152754 -0.00105634 -0.00272656 4.5049e-14 0.0025 
114 1 0.0964574 0.124146 0.00267627 0 0 0 0 0 0 0 0 0 0 0 0 0.0025 
115 1 0.0232674 0.030979 0.00273199 0 0 0 -0.00459546 -0.020871 -0.000757301 -0.442306 -2.0088 -0.0737865 -4.96272e-05 1.09271e-05 -2.06763e-16 0.0025 
116 1 0.0823655 0.041794 0.00265502 0 0 0 0 0 0 0 0 0 0 0 0 0.0025 
117 1 0.0153471 0.0576486 0.00250531 0 0 0 0 0 0 0 0 0 0 0 0 0.0025 
118 1 0.0367815 0.131086 0.00251088 0 0 0 0.0190857 -0.00826394 -0.000196307 1.81919 -0.798246 -0.0200409 -0.00504838 -0.0228786 0.471589 0.0025 
119 1 0.0935972 0.133821 0.00253731 0 0 0 -1.57255e-06 3.0768e-05 -1.42817e-06 -0.00422936 0.0821552 -0.00381618 -2.86695e-05 3.95542e-05 0.000883714 0.0025 
120 1 0.0691856 0.0240748 0.00263767 0 0 0 0 0 0 0 0 0 0 0 0 0.0025 
121 1 0.00917412 0.0342964 0.00257945 0 0 0 0 0 0 0 0 0 0 0 0 0.0025 
122 1 0.115292 0.0954419 0.00279915 0 0 0 0 0 0 0 0 0 0 0 0 0.0025 
123 1 0.11698 0.101991 0.00252902 0 0 0 0 0 0 0 0 0 0 0 0 0.0025 
124 1 0.117216 0.0182891 0.00275193 0 0 0 0 0 0 0 0 0 0 0 0 0.0025 
125 1 0.0559449 0.0647608 0.00281268 0 0 0 0 0 0 0 0 0 0 0 0 0.0025 
126 1 0.0504432 0.0914659 0.00272871 0 0 0 0.00612642 0.00842527 -1.15629e-05 0.879166 1.20906 -0.00167318 2.0443e-07 -1.48651e-07 2.88573e-16 0.0025 
127 1 0.0707589 0.130687 0.00288769 0 0 0 0 0 0 0 0 0 0 0 0 0.0025 
128 1 0.109665 0.0663918 0.00259245 0 0 0 0 0 0 0 0 0 0 0 0 0.0025 
129 1 0.120941 0.0802755 0.00284529 0 0 0 0.00240687 -0.0113309 -8.68389e-05 0.326178 -1.53555 -0.0118723 -2.18639e-06 -4.64427e-07 1.16419e-15 0.0025 
130 1 0.012864 0.0297461 0.00269246 0 0 0 -0.0337373 -0.00511771 -0.00172391 -2.44694 -0.371174 -0.12705 -3.71836e-05 0.00024415 2.85037e-06 0.0025 
131 1 0.0402106 0.0659419 0.00269823 0 0 0 0 0 0 0 0 0 0 0 0 0.0025 
132 1 0.0236985 0.0925248 0.00276503 0 0 0 0 0 0 0 0 0 0 0 0 0.0025 
133 1 0.0628918 0.107482 0.00278912 0 0 0 0.00602945 0.00872057 0.000309362 0.856527 1.23882 0.0443176 -5.72353e-06 3.95728e-06 -8.24649e-17 0.0025 
134 1 0.0616245 0.0355824 0.00276656 0 0 0 0 0 0 0 0 0 0 0 0 0.0025 
135 1 0.0176879 0.0996525 0.00269815 0 0 0 -0.00156808 -0.000470353 4.22255e-05 -0.586077 -0.175797 0.015833 1.62301e-08 -5.41084e-08 -6.96275e-20 0.0025 
136 1 0.121018 0.0477745 0.00279616 0 0 0 -0.00183275 0.00787768 8.99898e-05 -0.300937 1.29351 0.0148843 -1.301e-06 -3.02679e-07 2.18486e-16 0.0025 
137 1 0.0490188 0.0635697 0.00252701 0 0 0 0.00452772 -0.00704701 -0.000120055 0.729752 -1.1358 -0.0194938 -1.58174e-06 -1.01627e-06 -1.99341e-16 0.0025 
138 1 0.032692 0.115258 0.0028035 0 0 0 0 0 0 0 0 0 0 0 0 0.0025 
139 1 0.0848226 0.00895158 0.00286127 0 0 0 0 0 0 0 0 0 0 0 0 0.0025 
140 1 0.0516333 0.126765 0.00256926 0 0 0 0 0 0 0 0 0 0 0 0 0.0025 
141 1 0.0313445 0.022918 0.00288033 0 0 0 0 0 0 0 0 0 0 0 0 0.0025 
142 1 0.0908365 0.061032 0.00269531 0 0 0 0.000111173 0.000282036 -1.20434e-05 0.0971121 0.246364 -0.0105347 1.22725e-09 -4.83757e-10 -4.70168e-20 0.0025 
143 1 0.0557047 0.0802537 0.00257915 0 0 0 0 0 0 0 0 0 0 0 0 0.0025 
144 1 0.0176099 0.030466 0.00293877 0 0 0 0.0336819 0.0052242 0.00172484 2.36792 0.523079 0.128385 0.000171508 0.000392499 -0.00452732 0.0025 
145 1 0.137501 0.0654759 0.00270709 0 0 0 0 0 0 0 0 0 0 0 0 0.0025 
146 1 0.10005 0.132648 0.00286259 0 0 0 0 0 0 0 0 0 0 0 0 0.0025 
147 1 0.0679993 0.107849 0.00290013 0 0 0 -0.0026493 -0.0846164 9.12624e-05 -0.096184 -3.07203 0.00341284 6.68589e-05 -2.09332e-06 2.29284e-14 0.0025 
148 1 0.0603795 0.127074 0.00265861 0 0 0 0.00803238 0.0284538 -0.000443336 0.638266 2.26098 -0.0357493 4.81144e-05 -1.35825e-05 1.89958e-17 0.0025 
149 1 0.086658 0.0642789 0.00297286 0 0 0 0 0 0 0 0 0 0 0 0 0.0025 
150 1 0.0350615 0.110074 0.00262686 0 0 0 -0.0043933 -0.00558127 0.000160235 -0.772265 -0.981091 0.0283591 1.53444e-06 -1.20783e-06 -4.86106e-17 0.0025 
151 1 0.0590711 0.122439 0.00273187 0 0 0 -0.00803238 -0.0284538 0.000443336 -0.638266 -2.26098 0.0357493 4.81144e-05 -1.35825e-05 1.89958e-17 0.0025 
152 1 0.110262 0.046961 0.00291932 0 0 0 0.0164924 0.0770287 0.00285616 0.641219 3.00714 0.114342 -0.000966184 0.000461539 -0.00671338 0.0025 
153 1 0.0554097 0.118698 0.00291665 0 0 0 0 0 0 0 0 0 0 0 0 0.0025 
154 1 0.105582 0.0522168 0.00281997 0 0 0 0 0 0 0 0 0 0 0 0 0.0025 
155 1 0.105732 0.137952 0.00295498 0 0 0 0.0110029 0.0834493 0.00759611 0.396914 3.01031 0.282293 -0.00556851 0.000734218 1.7236e-14 0.0025 
156 1 0.0426349 0.0226367 0.00288368 0 0 0 0 0 0 0 0 0 0 0 0 0.0025 
157 1 0.0755231 0.0863225 0.00276934 0 0 0 0.0260193 0.00387578 0.00103952 2.21609 0.330105 0.0897627 -1.4332e-05 9.62152e-05 -1.98374e-15 0.0025 
158 1 0.108437 0.0908533 0.00272134 0 0 0 0 0 0 0 0 0 0 0 0 0.0025 
159 1 0.0901572 0.123174 0.00280598 0 0 0 0 0 0 0 0 0 0 0 0 0.0025 
160 1 0.134732 0.123977 0.00263652 0 0 0 0 0 0 0 0 0 0 0 0 0.0025 
161 1 0.0773787 0.0571736 0.00271606 0 0 0 -0.0822249 0.00903554 -0.0032979 -3.0478 0.334917 -0.125849 0.000252802 0.00230054 5.02834e-15 0.0025 
162 1 0.0129665 0.0241958 0.00297327 0 0 0 0 0 0 0 0 0 0 0 0 0.0025 
163 1 0.137648 0.0970893 0.00285702 0 0 0 0 0 0 0 0 0 0 0 0 0.0025 
164 1 0.0426887 0.117195 0.00274221 0 0 0 0 0 0 0 0 0 0 0 0 0.0025 
165 1 0.0489586 0.0133954 0.00283814 0 0 0 0 0 0 0 0 0 0 0 0 0.0025 
166 1 0.0877003 0.0237854 0.00257289 0 0 0 0 0 0 0 0 0 0 0 0 0.0025 
167 1 0.0230967 0.107873 0.00284697 0 0 0 0 0 0 0 0 0 0 0 0 0.0025 
168 1 0.0929686 0.104474 0.00257094 0 0 0 0 0 0 0 0 0 0 0 0 0.0025 
169 1 0.100879 0.0708303 0.00292699 0 0 0 -0.0571271 -0.061078 0.00107442 -2.11911 -2.27529 0.041452 0.00125163 -0.00163168 -0.0256297 0.0025 
170 1 0.123192 0.103092 0.00299337 0 0 0 0.00244254 0.0220103 0.00147427 0.22966 2.06952 0.140364 -0.000104659 1.16144e-05 4.01985e-15 0.0025 
171 1 0.080737 0.0120037 0.00293111 0 0 0 0.051457 0.0115413 0.00433711 2.76651 0.620503 0.238138 -0.000288309 0.00128543 2.55089e-15 0.0025 
172 1 0.0682416 0.0957473 0.00285539 0 0 0 0 0 0 0 0 0 0 0 0 0.0025 
173 1 0.00979469 0.0646319 0.00260097 0 0 0 0 0 0 0 0 0 0 0 0 0.0025 
174 1 0.0652865 0.131314 0.00283409 0 0 0 0 0 0 0 0 0 0 0 0 0.0025 
175 1 0.119927 0.0850462 0.00288218 0 0 0 -0.00240687 0.0113309 8.68389e-05 -0.326178 1.53555 0.0118723 -2.18639e-06 -4.64427e-07 1.16419e-15 0.0025 
176 1 0.116695 0.0404042 0.00291364 0 0 0 0 0 0 0 0 0 0 0 0 0.0025 
177 1 0.112907 0.121334 0.00298241 0 0 0 0 0 0 0 0 0 0 0 0 0.0025 
178 1 0.0993644 0.0918337 0.00273324 0 0 0 0 0 0 0 0 0 0 0 0 0.0025 
179 1 0.107145 0.127529 0.00265866 0 0 0 0 0 0 0 0 0 0 0 0 0.0025 
180 1 0.0220015 0.0578729 0.00265841 0 0 0 0.00146235 -0.0376998 -0.0015403 0.0995348 -2.56603 -0.106634 -0.000260191 -1.00927e-05 3.11686e-15 0.0025 
181 1 0.137173 0.0835228 0.0026905 0 0 0 0.002389 -0.00816072 -8.19026e-05 0.38202 -1.30496 -0.0131951 -1.25931e-06 -3.68656e-07 8.57742e-16 0.0025 
182 1 0.0348587 0.0552207 0.00266404 0 0 0 0.00325143 -0.00715096 0.000127376 0.573959 -1.27689 0.0225101 -0.0235752 -0.00393413 0.380778 0.0025 
183 1 0.0100628 0.114519 0.00250573 0 0 0 0 0 0 0 0 0 0 0 0 0.0025 
184 1 0.0180004 0.0822871 0.00281264 0 0 0 0 0 0 0 0 0 0 0 0 0.0025 
185 1 0.0953696 0.0805436 0.00288129 0 0 0 -0.00257225 0.0017865 9.70752e-05 -0.690772 0.479761 0.0261864 -1.95933e-07 -2.8211e-07 -4.92305e-18 0.0025 
186 1 0.0634558 0.0213586 0.00257608 0 0 0 0 0 0 0 0 0 0 0 0 0.0025 
187 1 0.111808 0.0222832 0.00288185 0 0 0 0 0 0 0 0 0 0 0 0 0.0025 
188 1 0.124525 0.089881 0.00277332 0 0 0 -0.000145221 0.00087024 -3.58914e-06 -0.0757275 0.449592 -0.00182159 -0.00217946 -0.000524545 -0.0389982 0.0025 
189 1 0.137695 0.113988 0.00278171 0 0 0 0.0417899 0.028748 -0.00199448 2.32448 1.59905 -0.113227 0.000317054 -0.000460889 -2.90307e-14 0.0025 
190 1 0.0924779 0.095072 0.00262554 0 0 0 0 0 0 0 0 0 0 0 0 0.0025 
191 1 0.0614332 0.0616994 0.00299873 0 0 0 0 0 0 0 0 0 0 0 0 0.0025 
192 1 0.0839467 0.137455 0.00269075 0 0 0 -0.0222445 0.00466095 -0.000143485 -2.06808 0.433332 -0.0135097 2.17246e-06 1.03681e-05 4.916e-15 0.0025 
193 1 0.0676969 0.124154 0.00290436 0 0 0 0 0 0 0 0 0 0 0 0 0.0025 
194 1 0.0576891 0.0717439 0.00275265 0 0 0 0 0 0 0 0 0 0 0 0 0.0025 
195 1 0.130637 0.0415534 0.0029841 0 0 0 0 0 0 0 0 0 0 0 0 0.0025 
196 1 0.0605376 0.136264 0.00258809 0 0 0 0 0 0 0 0 0 0 0 0 0.0025 
197 1 0.0274383 0.0104705 0.00294612 0 0 0 0 0 0 0 0 0 0 0 0 0.0025 
198 1 0.106333 0.0150781 0.00257823 0 0 0 0.0333548 0.00823277 -0.0028928 2.39849 0.592005 -0.211398 0.000101356 -0.00041064 -5.64144e-16 0.0025 
199 1 0.021004 0.0514536 0.00296912 0 0 0 0 0 0 0 0 0 0 0 0 0.0025 
200 1 0.0514146 0.0972983 0.00291395 0 0 0 0 0 0 0 0 0 0 0 0 0.0025 
201 1 0.122128 0.043006 0.00274128 0 0 0 0.00183275 -0.00787768 -8.99898e-05 0.300937 -1.29351 -0.0148843 -1.301e-06 -3.02679e-07 2.18486e-16 0.0025 
202 1 0.0456235 0.0501958 0.00267159 0 0 0 0.034352 -0.0339707 -0.00347586 0.294048 -1.78347 -0.100655 0.0355505 -0.0310947 0.644983 0.0025 
203 1 0.127732 0.111859 0.00289554 0 0 0 0 0 0 0 0 0 0 0 0 0.0025 
204 1 0.109746 0.0766379 0.0027954 0 0 0 0 0 0 0 0 0 0 0 0 0.0025 
205 1 0.121608 0.0736646 0.00266573 0 0 0 0.00542767 0.00137493 -0.000205369 1.07977 0.273527 -0.0411029 4.28937e-07 -1.69327e-06 -8.32303e-17 0.0025 
206 1 0.0785261 0.0308531 0.00266315 0 0 0 -0.0470933 -0.0446425 -0.000682702 -2.17297 -2.05988 -0.0322695 -0.000204888 0.000216136 4.01724e-14 0.0025 
207 1 0.0463734 0.067687 0.00259768 0 0 0 -0.00452772 0.00704701 0.000120055 -0.729752 1.1358 0.0194938 -1.58174e-06 -1.01627e-06 -1.99341e-16 0.0025 
208 1 0.133761 0.111281 0.00297319 0 0 0 -0.0417899 -0.028748 0.00199448 -2.32448 -1.59905 0.113227 0.000317054 -0.000460889 -2.90307e-14 0.0025 
209 1 0.0161929 0.0914959 0.00255293 0 0 0 0 0 0 0 0 0 0 0 0 0.0025 
210 1 0.0867226 0.0864626 0.00259968 0 0 0 -0.00413756 -0.0116937 7.89583e-05 -0.540295 -1.527 0.010405 2.12923e-06 -7.53381e-07 -6.14205e-16 0.0025 
211 1 0.0262254 0.019294 0.00299565 0 0 0 0 0 0 0 0 0 0 0 0 0.0025 
212 1 0.0297568 0.0481075 0.00287374 0 0 0 -0.0151917 0.0324534 -0.000257618 -1.1953 2.58978 -0.018997 -0.0635634 -0.0252959 0.559877 0.0025 
213 1 0.094776 0.0422854 0.0027211 0 0 0 0.0780873 -0.0302529 -0.00405537 2.85607 -1.10651 -0.152754 -0.00105634 -0.00272656 4.5049e-14 0.0025 
214 1 0.0724376 0.116922 0.00260351 0 0 0 0 0 0 0 0 0 0 0 0 0.0025 
215 1 0.081786 0.0265825 0.00298127 0 0 0 0 0 0 0 0 0 0 0 0 0.0025 
216 1 0.0083275 0.121462 0.00250066 0 0 0 0 0 0 0 0 0 0 0 0 0.0025 
217 1 0.0609633 0.0423864 0.00253308 0 0 0 0.0349166 -0.0743028 -0.00589057 1.22533 -3.26061 -0.252978 0.0439728 0.00861073 1.00487 0.0025 
218 1 0.0305459 0.106491 0.00298282 0 0 0 0 0 0 0 0 0 0 0 0 0.0025 
219 1 0.129799 0.135694 0.00288149 0 0 0 0 0 0 0 0 0 0 0 0 0.0025 
220 1 0.118652 0.116552 0.00281343 0 0 0 0 0 0 0 0 0 0 0 0 0.0025 
221 1 0.0507405 0.0793314 0.00293668 0 0 0 -0.0413068 0.068026 0.000567394 -1.59306 2.62354 0.0225067 -0.000313577 -0.000190411 3.64457e-14 0.0025 
222 1 0.0465547 0.12949 0.00288542 0 0 0 0 0 0 0 0 0 0 0 0 0.0025 
223 1 0.0473362 0.0276347 0.00260036 0 0 0 0 0 0 0 0 0 0 0 0 0.0025 
224 1 0.0915751 0.0489539 0.00258699 0 0 0 0 0 0 0 0 0 0 0 0 0.0025 
225 1 0.0903356 0.0161999 0.00278882 0 0 0 0 0 0 0 0 0 0 0 0 0.0025 
226 1 0.0869798 0.0700241 0.00264736 0 0 0 0 0 0 0 0 0 0 0 0 0.0025 
227 1 0.0559284 0.0576252 0.00299299 0 0 0 0 0 0 0 0 0 0 0 0 0.0025 
228 1 0.12759 0.0652228 0.00252527 0 0 0 0.0621115 0.0498177 -0.00473402 2.38255 1.91097 -0.186798 0.00193342 -0.00241054 -3.50017e-14 0.0025 
229 1 0.0409053 0.0504524 0.00295891 0 0 0 -0.0891046 0.00403286 0.00524581 -3.40296 0.11782 0.204651 -0.0254383 0.0161699 -0.437534 0.0025 
230 1 0.0554973 0.105591 0.00264358 0 0 0 0 0 0 0 0 0 0 0 0 0.0025 
231 1 0.13494 0.103738 0.00274182 0 0 0 0.029548 0.0482838 -0.00292501 1.66529 2.67221 -0.161037 -0.0544352 0.0566964 0.382609 0.0025 
232 1 0.0281891 0.135902 0.00251125 0 0 0 0.0673459 0.0118894 -0.00371628 2.97221 0.526174 -0.16818 0.000132374 -0.00177023 -0.00319715 0.0025 
233 1 0.112472 0.116287 0.00255222 0 0 0 0 0 0 0 0 0 0 0 0 0.0025 
234 1 0.128571 0.0264214 0.00272651 0 0 0 0 0 0 0 0 0 0 0 0 0.0025 
235 1 0.12599 0.128132 0.0027514 0 0 0 0 0 0 0 0 0 0 0 0 0.0025 
236 1 0.111441 0.0716555 0.00270168 0 0 0 0 0 0 0 0 0 0 0 0 0.0025 
237 1 0.12266 0.0982951 0.0026681 0 0 0 -0.00244254 -0.0220103 -0.00147427 -0.22966 -2.06952 -0.140364 -0.000104659 1.16144e-05 4.01985e-15 0.0025 
238 1 0.0952881 0.0566121 0.00256974 0 0 0 0 0 0 0 0 0 0 0 0 0.0025 
239 1 0.122407 0.0282831 0.00262847 0 0 0 -0.00146329 -0.0498223 0.000500373 -0.0864597 -2.80623 0.0287427 8.17252e-05 0.000178228 0.0177272 0.0025 
240 1 0.0983967 0.0350844 0.00290893 0 0 0 0 0 0 0 0 0 0 0 0 0.0025 
241 1 0.0322786 0.132874 0.00254964 0 0 0 -0.0393608 -0.0153477 -0.0021576 -2.28985 0.446051 -0.135598 -0.0261898 -0.00127845 0.508672 0.0025 
242 1 0.0367481 0.0818773 0.00285076 0 0 0 0 0 0 0 0 0 0 0 0 0.0025 
243 1 0.0314135 0.0391053 0.00264449 0 0 0 -0.00654324 -0.0690135 -0.00393119 -0.281981 -3.14819 -0.181938 0.0134228 0.00638236 -0.132373 0.0025 
244 1 0.0188732 0.0111158 0.00297519 0 0 0 0.0850824 0.00311364 0.00421197 3.06036 0.111948 0.156088 -0.000116584 0.00314015 3.28069e-05 0.0025 
245 1 0.067612 0.0591239 0.00299933 0 0 0 -0.00241019 -0.0157016 0.000813932 -0.315196 -1.962 0.103438 0.0294939 0.0251248 0.571519 0.0025 
246 1 0.0414253 0.0872775 0.00284764 0 0 0 0 0 0 0 0 0 0 0 0 0.0025 
247 1 0.108159 0.00932892 0.0026222 0 0 0 0 0 0 0 0 0 0 0 0 0.0025 
248 1 0.0994202 0.0777304 0.00272772 0 0 0 0.00257225 -0.0017865 -9.70752e-05 0.690772 -0.479761 -0.0261864 -1.95933e-07 -2.8211e-07 -4.92305e-18 0.0025 
249 1 0.0297155 0.128801 0.00267637 0 0 0 -0.0125564 -0.0195599 0.000558498 -1.29557 -1.99813 0.0569467 -0.0262696 0.0209926 0.144029 0.0025 
250 1 0.00990572 0.0399701 0.00284408 0 0 0 0 0 0 0 0 0 0 0 0 0.0025 
251 1 0.0559057 0.0898913 0.00286512 0 0 0 -0.0275844 0.0241697 -0.00232887 -1.38073 0.889807 -0.105758 0.00597845 -0.00440197 -0.113912 0.0025 
252 1 0.0117125 0.0187229 0.00264251 0 0 0 0 0 0 0 0 0 0 0 0 0.0025 
253 1 0.040071 0.0152839 0.00288641 0 0 0 0 0 0 0 0 0 0 0 0 0.0025 
254 1 0.0510995 0.0694537 0.00278442 0 0 0 0 0 0 0 0 0 0 0 0 0.0025 
255 1 0.0788413 0.101075 0.00289612 0 0 0 0 0 0 0 0 0 0 0 0 0.0025 
256 1 0.0328066 0.0292488 0.00253035 0 0 0 0.0444975 -0.0172526 -0.00428391 2.5672 -0.995359 -0.252082 -0.000395848 -0.00102096 1.78401e-15 0.0025 
257 1 0.106127 0.0238257 0.00262287 0 0 0 0 0 0 0 0 0 0 0 0 0.0025 
258 1 0.0495459 0.0361318 0.00271703 0 0 0 -0.0249749 0.0727428 0.00138621 -1.48926 2.83993 0.0380326 0.0283988 0.0166545 -0.372026 0.0025 
259 1 0.104528 0.0287119 0.00286394 0 0 0 0 0 0 0 0 0 0 0 0 0.0025 
260 1 0.0966707 0.0633305 0.00285099 0 0 0 0 0 0 0 0 0 0 0 0 0.0025 
261 1 0.110241 0.0277553 0.00265372 0 0 0 0 0 0 0 0 0 0 0 0 0.0025 
262 1 0.00787596 0.0958113 0.0026745 0 0 0 0 0 0 0 0 0 0 0 0 0.0025 
263 1 0.0707547 0.0856122 0.00257624 0 0 0 -0.0260193 -0.00387578 -0.00103952 -2.21609 -0.330105 -0.0897627 -1.4332e-05 9.62152e-05 -1.98374e-15 0.0025 
264 1 0.117734 0.0257394 0.00256774 0 0 0 0.0164822 -0.0763571 -0.00287557 0.645764 -2.99162 -0.115833 -0.00175663 -0.000379181 -1.36371e-13 0.0025 
265 1 0.0853272 0.117139 0.00266001 0 0 0 0 0 0 0 0 0 0 0 0 0.0025 
266 1 0.124936 0.121598 0.00263437 0 0 0 0 0 0 0 0 0 0 0 0 0.0025 
267 1 0.0760912 0.0109617 0.0025316 0 0 0 -0.051457 -0.0115413 -0.00433711 -2.76651 -0.620503 -0.238138 -0.000288309 0.00128543 2.55089e-15 0.0025 
268 1 0.0734338 0.0292543 0.00254736 0 0 0 -0.0302254 0.0577667 -0.00263513 -1.3867 2.65025 -0.12386 0.00103106 0.000539482 2.82827e-14 0.0025 
269 1 0.0218156 0.0626645 0.00285743 0 0 0 -0.00146235 0.0376998 0.0015403 -0.0995348 2.56603 0.106634 -0.000260191 -1.00927e-05 3.11686e-15 0.0025 
270 1 0.0604618 0.0778512 0.00273645 0 0 0 0 0 0 0 0 0 0 0 0 0.0025 
271 1 0.12613 0.0500631 0.0027991 0 0 0 0 0 0 0 0 0 0 0 0 0.0025 
272 1 0.113565 0.126758 0.00266276 0 0 0 -0.00488245 0.00163314 5.57087e-06 -1.01567 0.339733 0.00116559 -1.32064e-08 -3.9482e-08 1.86922e-16 0.0025 
273 1 0.0566895 0.0197192 0.00254971 0 0 0 0 0 0 0 0 0 0 0 0 0.0025 
274 1 0.0359852 0.0901866 0.00297466 0 0 0 0 0 0 0 0 0 0 0 0 0.0025 
275 1 0.0149563 0.107423 0.00260534 0 0 0 0 0 0 0 0 0 0 0 0 0.0025 
276 1 0.0756416 0.0250347 0.00274426 0 0 0 0.0302254 -0.0577667 0.00263513 1.3867 -2.65025 0.12386 0.00103106 0.000539482 2.82827e-14 0.0025 
277 1 0.0278355 0.0670426 0.00293889 0 0 0 0.000775284 -0.00424144 0.00027666 0.179431 -1.00006 0.0652779 -0.0101603 0.00569545 0.115755 0.0025 
278 1 0.0242064 0.120602 0.0025193 0 0 0 0 0 0 0 0 0 0 0 0 0.0025 
279 1 0.136416 0.0565723 0.00286244 0 0 0 0 0 0 0 0 0 0 0 0 0.0025 
280 1 0.129849 0.0850112 0.00253575 0 0 0 0.0426735 0.000574866 -0.00239981 2.673 0.0358272 -0.153097 1.62123e-05 -0.000498721 0.000166054 0.0025 
281 1 0.0685314 0.101954 0.00265283 0 0 0 -0.0224963 0.00923242 -0.0015438 -2.00321 0.82211 -0.139294 4.85692e-05 0.000118347 -3.11674e-15 0.0025 
282 1 0.104906 0.104297 0.00277122 0 0 0 0.0116375 0.0210226 -0.000250237 1.05957 1.87166 -0.0220727 -0.00774026 0.00855216 0.357296 0.0025 
283 1 0.112699 0.0128411 0.00292831 0 0 0 0 0 0 0 0 0 0 0 0 0.0025 
284 1 0.0222355 0.0856137 0.00258829 0 0 0 0 0 0 0 0 0 0 0 0 0.0025 
285 1 0.0347858 0.101331 0.00271702 0 0 0 -0.0114075 -0.00330563 0.000480316 -1.54558 -0.457759 0.0649797 -0.0125115 0.0139506 -0.200869 0.0025 
286 1 0.121252 0.0544185 0.00275264 0 0 0 0 0 0 0 0 0 0 0 0 0.0025 
287 1 0.0927987 0.0857746 0.0027716 0 0 0 0 0 0 0 0 0 0 0 0 0.0025 
288 1 0.11643 0.0508989 0.00281423 0 0 0 0 0 0 0 0 0 0 0 0 0.0025 
289 1 0.0273368 0.0609193 0.00255827 0 0 0 0 0 0 0 0 0 0 0 0 0.0025 
290 1 0.0796431 0.0706267 0.00256094 0 0 0 0 0 0 0 0 0 0 0 0 0.0025 
291 1 0.0597157 0.0980136 0.00297237 0 0 0 0 0 0 0 0 0 0 0 0 0.0025 
292 1 0.0468429 0.108131 0.00291897 0 0 0 0.00124637 -0.00208941 -3.44946e-05 0.381016 -0.638734 -0.0105867 -7.16544e-08 -4.27431e-08 3.00704e-18 0.0025 
293 1 0.104524 0.0953373 0.0027568 0 0 0 0 0 0 0 0 0 0 0 0 0.0025 
294 1 0.137412 0.0458605 0.00289597 0 0 0 0 0 0 0 0 0 0 0 0 0.0025 
295 1 0.121794 0.108492 0.00296407 0 0 0 0.00138608 -0.000977283 0.000132488 0.506762 -0.357302 0.0485986 1.08703e-07 1.54174e-07 -2.88395e-18 0.0025 
296 1 0.11459 0.0650333 0.00290006 0 0 0 -0.0359867 -0.0187358 0.000443326 -2.38966 -1.05522 0.027064 6.683e-05 2.13274e-05 0.006308 0.0025 
297 1 0.133049 0.06104 0.00270292 0 0 0 0 0 0 0 0 0 0 0 0 0.0025 
298 1 0.0442784 0.0923724 0.002985 0 0 0 0 0 0 0 0 0 0 0 0 0.0025 
299 1 0.131968 0.118577 0.00252393 0 0 0 0 0 0 0 0 0 0 0 0 0.0025 
300 1 0.0761203 0.130548 0.00258609 0 0 0 -0.0367749 -0.00818637 0.000391955 -1.65025 0.545977 0.0183889 0.00345477 -0.000221756 0.31952 0.0025 