# vtk DataFile Version 4.0
Generated by LIGGGHTS
ASCII
DATASET POLYDATA
POINTS 415 float
0.0642766 0.0105199 0.00253515 0.0950033 0.0106663 0.00250643 0.0292949 0.0130181 0.00294612 
0.0386917 0.0122082 0.00262534 0.0460688 0.0110062 0.00297806 0.0576088 0.0128175 0.00286125 
0.0694287 0.0111206 0.00297217 0.0843449 0.0115594 0.00286126 0.0902164 0.0129486 0.00285596 
0.106728 0.011923 0.0026222 0.114253 0.0115524 0.00278471 0.130122 0.010743 0.0025837 
0.0120999 0.0152836 0.0025504 0.0164115 0.013451 0.00272761 0.0212063 0.0136417 0.00298171 
0.07025 0.0157361 0.00286102 0.0758754 0.0134688 0.00252367 0.0805117 0.014511 0.00293906 
0.111083 0.0152929 0.00292834 0.119394 0.0146291 0.0028586 0.126158 0.0134226 0.00253656 
0.133848 0.0150606 0.00277236 0.0183661 0.0179049 0.00292239 0.0249012 0.01772 0.0027513 
0.0414132 0.0176355 0.00288641 0.0499389 0.0158239 0.00283814 0.0654873 0.0172036 0.00271322 
0.0954585 0.0170727 0.00284515 0.100448 0.01632 0.00299406 0.105046 0.0174552 0.00257201 
0.129168 0.0171167 0.00273377 0.03473 0.0203176 0.00264717 0.0526834 0.0201099 0.00284293 
0.0730634 0.0194433 0.00278488 0.0896309 0.0185141 0.00278882 0.115416 0.0205183 0.00275194 
0.132621 0.0203931 0.00259492 0.0142095 0.0209344 0.00264251 0.0281314 0.0214823 0.00299565 
0.0573549 0.0218902 0.00254971 0.0835027 0.0218057 0.00273979 0.0958597 0.0221296 0.00289255 
0.100971 0.0220213 0.00257365 0.120458 0.0209266 0.00254829 0.125916 0.0229926 0.00261724 
0.033042 0.0249589 0.00288034 0.0438727 0.0246889 0.00288368 0.0488996 0.0246956 0.00272277 
0.0638457 0.0234628 0.00257608 0.110229 0.0243497 0.00288185 0.0154124 0.0261845 0.00297327 
0.0218786 0.0278456 0.00288671 0.0281626 0.0275715 0.0025951 0.0565138 0.0271282 0.00263574 
0.0693421 0.0260684 0.00263767 0.075585 0.0268941 0.00274874 0.0871029 0.0257908 0.00257289 
0.104779 0.0258291 0.00262286 0.115939 0.0275473 0.00256316 0.131481 0.0257117 0.00252827 
0.0397333 0.0287514 0.00299923 0.0483816 0.0294917 0.00260015 0.0622581 0.0293142 0.00297781 
0.0814295 0.028474 0.00298127 0.103245 0.0305169 0.00286396 0.108725 0.0295965 0.00265361 
0.120393 0.0300149 0.00262941 0.12631 0.028317 0.00272657 0.135475 0.0282829 0.00275165 
0.0152435 0.031498 0.00268873 0.0199312 0.0322215 0.0029426 0.025279 0.0326386 0.00272989 
0.0301049 0.0327152 0.00297442 0.0345263 0.031 0.00252223 0.042724 0.0326805 0.00267051 
0.0562745 0.0318222 0.00299041 0.0664672 0.0327596 0.00269232 0.0733676 0.0311321 0.00254288 
0.0782246 0.0324969 0.00266199 0.0898474 0.0308322 0.00255377 0.0949583 0.0309946 0.0028981 
0.114925 0.032243 0.00275202 0.124933 0.0329818 0.00260956 0.130642 0.0316494 0.00268398 
0.0518482 0.0332115 0.00261459 0.109652 0.0343811 0.00285412 0.120522 0.0347757 0.00257854 
0.135121 0.0337465 0.00276767 0.0117745 0.0358737 0.00257945 0.0263031 0.0372751 0.00290744 
0.0458351 0.0363376 0.00255719 0.0504521 0.0377452 0.00271874 0.062089 0.0371074 0.00276656 
0.081698 0.0357896 0.00271561 0.0890923 0.0359513 0.00295701 0.0973637 0.0366296 0.00290893 
0.116325 0.0368997 0.00255921 0.0204161 0.0384176 0.00262182 0.0330978 0.0403714 0.00263777 
0.0403816 0.0404222 0.00287295 0.0550898 0.0389489 0.00290232 0.0668916 0.0399058 0.0029201 
0.0758568 0.0389493 0.00252304 0.0872348 0.0405991 0.0025462 0.104132 0.0385794 0.00250764 
0.110155 0.0394777 0.00299009 0.12705 0.0381502 0.00260244 0.13182 0.0386968 0.00264562 
0.0124763 0.0413164 0.00284408 0.0225516 0.0429888 0.00265728 0.0719282 0.0419481 0.00263612 
0.0819853 0.043066 0.00265502 0.0990445 0.0417555 0.00264373 0.114917 0.0417328 0.00291364 
0.128292 0.0428389 0.0029844 0.0280944 0.0444922 0.00281121 0.0335974 0.0450572 0.0029292 
0.0452074 0.0443994 0.00254171 0.0508569 0.043474 0.00297552 0.0570836 0.044831 0.00275121 
0.0615094 0.0435126 0.00252329 0.0895196 0.0452295 0.00296397 0.094008 0.0434919 0.0027148 
0.107747 0.0434755 0.00273596 0.120136 0.0441963 0.0027409 0.0174641 0.0469053 0.00291759 
0.0242718 0.0476184 0.0029046 0.0382816 0.0463456 0.00252765 0.0534013 0.0476549 0.00269981 
0.064701 0.0469816 0.00268948 0.0695029 0.0460338 0.00254565 0.0760423 0.0480404 0.00262743 
0.100301 0.0478227 0.00295043 0.108771 0.0481383 0.0029239 0.13479 0.0469669 0.00289597 
0.0314849 0.0491964 0.00287319 0.082217 0.0497034 0.00286502 0.09082 0.0499356 0.00258691 
0.119056 0.0488353 0.00279654 0.0105807 0.0526633 0.00270611 0.0231216 0.0523363 0.00296918 
0.036556 0.0507715 0.00259618 0.0420744 0.0513771 0.00296733 0.0467766 0.0510654 0.00266662 
0.0711937 0.0508212 0.00283048 0.0759731 0.0528843 0.00250242 0.0983792 0.0526195 0.00275833 
0.104256 0.0530644 0.00281997 0.109236 0.0529141 0.00285034 0.114663 0.0518001 0.00281423 
0.123967 0.0509984 0.0027991 0.0301299 0.0544288 0.00280216 0.050758 0.0534585 0.00253981 
0.0561234 0.0532414 0.00264125 0.0631152 0.0535729 0.00267835 0.119288 0.0551764 0.00275264 
0.130234 0.0532107 0.00275027 0.0128753 0.0576119 0.00269824 0.0364276 0.0559132 0.00266462 
0.0415388 0.0566182 0.00294003 0.0770772 0.0578329 0.00271091 0.0818615 0.0573072 0.00291593 
0.0883563 0.057068 0.00289379 0.0943817 0.0572806 0.00256974 0.100737 0.0568469 0.00278278 
0.133835 0.0572425 0.00286244 0.0176989 0.0582754 0.0025052 0.0240824 0.0584142 0.0026552 
0.0341221 0.0600274 0.00255949 0.0566248 0.0582525 0.00299299 0.0678243 0.0596396 0.00300207 
0.107687 0.0593236 0.00266083 0.124392 0.0585355 0.00250498 0.0291976 0.0614125 0.00255827 
0.0619054 0.0621608 0.00299873 0.0725165 0.0622788 0.00250197 0.0901163 0.0615332 0.00269475 
0.114621 0.0608843 0.00296364 0.121716 0.0626135 0.00282279 0.130605 0.0615283 0.00270292 
0.0123698 0.0649739 0.00260097 0.0238983 0.0631625 0.00286063 0.037039 0.0638031 0.00279572 
0.0500148 0.0639265 0.00252651 0.0566406 0.0650976 0.00281268 0.068204 0.0642974 0.00276646 
0.0861031 0.0646353 0.00297286 0.095708 0.0637255 0.00285099 0.103424 0.0645733 0.00272833 
0.112826 0.0653337 0.00290091 0.125463 0.065617 0.00251778 0.0296805 0.0672596 0.00294066 
0.0415471 0.0662306 0.00269823 0.0474366 0.0679312 0.002598 0.0641027 0.0677954 0.00268832 
0.0769592 0.0664976 0.002502 0.0903674 0.0672704 0.00273697 0.108171 0.0666626 0.00259232 
0.11704 0.0675329 0.00284569 0.134876 0.0657835 0.00270709 0.0519966 0.0696011 0.00278459 
0.0697887 0.0687393 0.0025635 0.0864104 0.0701474 0.00264733 0.129934 0.0704348 0.00272614 
0.0127209 0.0715974 0.00290479 0.0191846 0.0715342 0.00275345 0.0286026 0.0718667 0.00260414 
0.0366777 0.0719537 0.0027698 0.0447158 0.0723901 0.00295005 0.0583138 0.0717963 0.00275265 
0.0793752 0.0707271 0.00256098 0.0919236 0.0725591 0.00250782 0.0996579 0.0708262 0.0029287 
0.109877 0.0717114 0.00270168 0.115037 0.0724753 0.00284798 0.0241878 0.0753037 0.00269945 
0.0323871 0.074721 0.00280916 0.0540817 0.0750672 0.00290096 0.0658144 0.0732299 0.00258945 
0.0738237 0.0738389 0.00265607 0.0858006 0.0752692 0.00262746 0.102946 0.0742917 0.00286489 
0.119657 0.0736457 0.00266466 0.126952 0.0741442 0.00255168 0.0135136 0.0762918 0.00296909 
0.0393044 0.0759122 0.00281112 0.0438275 0.0773594 0.00281333 0.0609736 0.0776548 0.00273645 
0.0811109 0.0761861 0.00279712 0.0983641 0.0775259 0.00272699 0.108251 0.0764909 0.0027954 
0.132178 0.0774159 0.00275786 0.0515828 0.0791784 0.00293774 0.0564122 0.0799603 0.00257898 
0.0700301 0.0793329 0.0025751 0.0747504 0.0798311 0.0029017 0.0944411 0.0802507 0.00288202 
0.103115 0.0789357 0.00265695 0.118998 0.079942 0.00284499 0.0150923 0.0807629 0.00265542 
0.0202413 0.0819101 0.00281264 0.0307404 0.0805688 0.00280611 0.0382256 0.081517 0.00285076 
0.0653061 0.0812932 0.00262511 0.0885014 0.0809771 0.00259704 0.112653 0.0829658 0.00254386 
0.0143833 0.0853156 0.00276982 0.024304 0.0851012 0.00258829 0.0333848 0.0852556 0.00271681 
0.0550932 0.0847942 0.00298957 0.0707868 0.0850908 0.00257374 0.0800606 0.0838292 0.00251713 
0.0919937 0.0852556 0.0027716 0.100427 0.0849011 0.00285024 0.107049 0.083799 0.00298992 
0.118008 0.0845953 0.00288251 0.12287 0.084444 0.0028143 0.127617 0.0845243 0.00253099 
0.134571 0.0830629 0.00269016 0.0427123 0.0866973 0.00284764 0.0485862 0.0868963 0.00273422 
0.0634487 0.0873524 0.0027676 0.0754821 0.0857902 0.00277184 0.0861514 0.0858772 0.00259995 
0.133233 0.0876332 0.00273833 0.0126342 0.0897246 0.00286723 0.0374938 0.089488 0.00297466 
0.0565552 0.0892413 0.00286117 0.0877379 0.0903611 0.00256811 0.106995 0.0901274 0.00272134 
0.1165 0.0896802 0.00263632 0.122425 0.0892112 0.00277326 0.128317 0.0901196 0.00262708 
0.0185074 0.0907439 0.00255293 0.0257074 0.0917309 0.00276503 0.031327 0.0920087 0.0029846 
0.0454492 0.0915847 0.002985 0.051385 0.0907453 0.00272867 0.0600874 0.092279 0.00289969 
0.0722136 0.0906439 0.00271556 0.098292 0.0910679 0.00273324 0.0105278 0.0948785 0.00267454 
0.0684366 0.0948222 0.00285539 0.0809709 0.0948299 0.0028754 0.0916859 0.0941743 0.00262554 
0.103241 0.0944184 0.00275666 0.113571 0.0945292 0.00279915 0.0444089 0.0974433 0.00296506 
0.0522948 0.09631 0.00291395 0.0602596 0.0970101 0.00297257 0.0859508 0.0973426 0.00259991 
0.0971283 0.0960937 0.00253726 0.107091 0.0973839 0.00282075 0.120633 0.0972112 0.00266429 
0.125802 0.0967662 0.00262553 0.135016 0.0961095 0.00285702 0.011862 0.099507 0.00262552 
0.0199235 0.0985629 0.00269866 0.024508 0.0999381 0.00256955 0.0363042 0.100167 0.00271868 
0.0730466 0.0989983 0.00296669 0.0786046 0.0999331 0.00289612 0.101484 0.0988388 0.00282857 
0.130122 0.09853 0.00301568 0.040898 0.101317 0.00250213 0.0511159 0.102924 0.00289709 
0.0606231 0.102196 0.00264439 0.0686606 0.100798 0.002649 0.0974935 0.101417 0.00266904 
0.11519 0.100811 0.00252902 0.121156 0.101922 0.00299718 0.132474 0.102575 0.00273641 
0.0113878 0.104226 0.0028474 0.0322759 0.105129 0.00298283 0.056209 0.104266 0.00264358 
0.0731727 0.104034 0.00269698 0.0821123 0.104597 0.00274051 0.0871383 0.10297 0.00280114 
0.0921566 0.103193 0.00257094 0.103637 0.103074 0.00277063 0.108222 0.105128 0.00267987 
0.0173212 0.106023 0.00260534 0.0251301 0.106455 0.00284697 0.0407787 0.106045 0.00286165 
0.04792 0.106683 0.00291866 0.0633253 0.106108 0.00279022 0.0682015 0.106305 0.0029003 
0.119823 0.107037 0.00296559 0.0365872 0.108542 0.00262754 0.0529199 0.109176 0.00288724 
0.0607591 0.110271 0.002782 0.0759663 0.107965 0.00275294 0.0838471 0.110186 0.00296446 
0.0912474 0.109553 0.00253426 0.100453 0.109145 0.00263082 0.106873 0.110116 0.00252848 
0.115923 0.109788 0.00257564 0.125505 0.110278 0.00289554 0.131212 0.109672 0.00297691 
0.012627 0.112829 0.00250573 0.0395349 0.112284 0.00251481 0.045471 0.110788 0.00298972 
0.068351 0.111122 0.00289471 0.135137 0.112372 0.002778 0.0199888 0.112976 0.00280153 
0.0294161 0.113654 0.00252852 0.0343351 0.113539 0.00280352 0.0647839 0.115111 0.00251047 
0.0724617 0.115134 0.00260351 0.0848264 0.115342 0.00266001 0.0987008 0.113553 0.00290531 
0.110866 0.114523 0.00255202 0.116794 0.11478 0.00281343 0.121705 0.114248 0.00286929 
0.0439236 0.115398 0.00274211 0.0561272 0.116838 0.00291665 0.0926584 0.115466 0.00260423 
0.129568 0.116722 0.00252393 0.0109624 0.119489 0.00250066 0.0191643 0.118264 0.002674 
0.0261946 0.118665 0.0025193 0.103674 0.118472 0.00256386 0.111283 0.119369 0.0029826 
0.122823 0.119621 0.00263437 0.0320687 0.120854 0.00276914 0.0386116 0.121069 0.00273913 
0.0433406 0.120616 0.00269121 0.0596217 0.120364 0.00273289 0.067914 0.122072 0.00290436 
0.0796003 0.120399 0.00283736 0.0843294 0.122144 0.00299804 0.0894597 0.121132 0.00280598 
0.0955033 0.122064 0.00267627 0.13222 0.121902 0.00263652 0.0153412 0.124955 0.00255134 
0.0237821 0.123036 0.00271246 0.0525046 0.124577 0.00256926 0.0609125 0.124936 0.00265759 
0.0748691 0.123667 0.00259707 0.105756 0.12531 0.00265866 0.111888 0.124579 0.00266279 
0.116413 0.123065 0.00265738 0.0314444 0.126476 0.00267792 0.0476329 0.127191 0.00288542 
0.083066 0.126764 0.00262492 0.0932308 0.126549 0.00277713 0.123833 0.125888 0.0027514 
0.0222387 0.129141 0.00296786 0.0383056 0.128701 0.00251032 0.0656019 0.128941 0.00283409 
0.0708514 0.128339 0.00288769 0.0759346 0.128209 0.00258675 0.0887577 0.128145 0.0025485 
0.0989478 0.13022 0.00286269 0.0254363 0.132553 0.0027807 0.0338715 0.13043 0.00254536 
0.0434551 0.132001 0.0025763 0.055627 0.131523 0.0025099 0.0796268 0.131145 0.00254577 
0.0927592 0.131356 0.00253682 0.103791 0.130674 0.00250353 0.112075 0.132298 0.00273649 
0.0109366 0.133507 0.00282243 0.0155842 0.134611 0.00249881 0.0301197 0.133364 0.00250496 
0.0367788 0.134145 0.00271472 0.0506396 0.132841 0.00263116 0.0610463 0.133689 0.00258809 
0.0763173 0.135107 0.00250855 0.0834471 0.134843 0.00269038 0.0880967 0.133869 0.00272203 
0.104417 0.135433 0.00296672 0.116698 0.133623 0.00292257 0.122207 0.134252 0.00276857 
0.127487 0.133142 0.00288149 
VERTICES 415 830
1 0 
1 1 
1 2 
1 3 
1 4 
1 5 
1 6 
1 7 
1 8 
1 9 
1 10 
1 11 
1 12 
1 13 
1 14 
1 15 
1 16 
1 17 
1 18 
1 19 
1 20 
1 21 
1 22 
1 23 
1 24 
1 25 
1 26 
1 27 
1 28 
1 29 
1 30 
1 31 
1 32 
1 33 
1 34 
1 35 
1 36 
1 37 
1 38 
1 39 
1 40 
1 41 
1 42 
1 43 
1 44 
1 45 
1 46 
1 47 
1 48 
1 49 
1 50 
1 51 
1 52 
1 53 
1 54 
1 55 
1 56 
1 57 
1 58 
1 59 
1 60 
1 61 
1 62 
1 63 
1 64 
1 65 
1 66 
1 67 
1 68 
1 69 
1 70 
1 71 
1 72 
1 73 
1 74 
1 75 
1 76 
1 77 
1 78 
1 79 
1 80 
1 81 
1 82 
1 83 
1 84 
1 85 
1 86 
1 87 
1 88 
1 89 
1 90 
1 91 
1 92 
1 93 
1 94 
1 95 
1 96 
1 97 
1 98 
1 99 
1 100 
1 101 
1 102 
1 103 
1 104 
1 105 
1 106 
1 107 
1 108 
1 109 
1 110 
1 111 
1 112 
1 113 
1 114 
1 115 
1 116 
1 117 
1 118 
1 119 
1 120 
1 121 
1 122 
1 123 
1 124 
1 125 
1 126 
1 127 
1 128 
1 129 
1 130 
1 131 
1 132 
1 133 
1 134 
1 135 
1 136 
1 137 
1 138 
1 139 
1 140 
1 141 
1 142 
1 143 
1 144 
1 145 
1 146 
1 147 
1 148 
1 149 
1 150 
1 151 
1 152 
1 153 
1 154 
1 155 
1 156 
1 157 
1 158 
1 159 
1 160 
1 161 
1 162 
1 163 
1 164 
1 165 
1 166 
1 167 
1 168 
1 169 
1 170 
1 171 
1 172 
1 173 
1 174 
1 175 
1 176 
1 177 
1 178 
1 179 
1 180 
1 181 
1 182 
1 183 
1 184 
1 185 
1 186 
1 187 
1 188 
1 189 
1 190 
1 191 
1 192 
1 193 
1 194 
1 195 
1 196 
1 197 
1 198 
1 199 
1 200 
1 201 
1 202 
1 203 
1 204 
1 205 
1 206 
1 207 
1 208 
1 209 
1 210 
1 211 
1 212 
1 213 
1 214 
1 215 
1 216 
1 217 
1 218 
1 219 
1 220 
1 221 
1 222 
1 223 
1 224 
1 225 
1 226 
1 227 
1 228 
1 229 
1 230 
1 231 
1 232 
1 233 
1 234 
1 235 
1 236 
1 237 
1 238 
1 239 
1 240 
1 241 
1 242 
1 243 
1 244 
1 245 
1 246 
1 247 
1 248 
1 249 
1 250 
1 251 
1 252 
1 253 
1 254 
1 255 
1 256 
1 257 
1 258 
1 259 
1 260 
1 261 
1 262 
1 263 
1 264 
1 265 
1 266 
1 267 
1 268 
1 269 
1 270 
1 271 
1 272 
1 273 
1 274 
1 275 
1 276 
1 277 
1 278 
1 279 
1 280 
1 281 
1 282 
1 283 
1 284 
1 285 
1 286 
1 287 
1 288 
1 289 
1 290 
1 291 
1 292 
1 293 
1 294 
1 295 
1 296 
1 297 
1 298 
1 299 
1 300 
1 301 
1 302 
1 303 
1 304 
1 305 
1 306 
1 307 
1 308 
1 309 
1 310 
1 311 
1 312 
1 313 
1 314 
1 315 
1 316 
1 317 
1 318 
1 319 
1 320 
1 321 
1 322 
1 323 
1 324 
1 325 
1 326 
1 327 
1 328 
1 329 
1 330 
1 331 
1 332 
1 333 
1 334 
1 335 
1 336 
1 337 
1 338 
1 339 
1 340 
1 341 
1 342 
1 343 
1 344 
1 345 
1 346 
1 347 
1 348 
1 349 
1 350 
1 351 
1 352 
1 353 
1 354 
1 355 
1 356 
1 357 
1 358 
1 359 
1 360 
1 361 
1 362 
1 363 
1 364 
1 365 
1 366 
1 367 
1 368 
1 369 
1 370 
1 371 
1 372 
1 373 
1 374 
1 375 
1 376 
1 377 
1 378 
1 379 
1 380 
1 381 
1 382 
1 383 
1 384 
1 385 
1 386 
1 387 
1 388 
1 389 
1 390 
1 391 
1 392 
1 393 
1 394 
1 395 
1 396 
1 397 
1 398 
1 399 
1 400 
1 401 
1 402 
1 403 
1 404 
1 405 
1 406 
1 407 
1 408 
1 409 
1 410 
1 411 
1 412 
1 413 
1 414 

POINT_DATA 415
FIELD FieldData 7
id 1 415 int
35 309 197 92 26 327 306 139 98 
247 412 396 47 335 244 68 267 171 
283 29 334 36 401 331 253 165 395 
31 373 198 30 312 49 385 225 124 
310 252 211 273 19 32 305 24 329 
141 156 103 186 187 162 339 7 391 
120 276 166 257 264 66 351 223 301 
215 259 261 239 234 376 130 144 115 
387 256 70 326 71 268 206 362 109 
58 367 63 9 369 400 354 121 111 
403 258 134 94 363 240 102 399 243 
51 72 21 17 311 25 384 75 338 
250 353 382 116 358 176 195 356 342 
95 392 64 217 113 213 85 201 54 
93 6 325 349 96 11 53 152 294 
212 8 224 136 12 199 38 229 202 
322 410 308 154 315 288 271 37 343 
88 50 286 77 307 182 413 161 365 
316 238 18 279 117 180 411 227 245 
4 355 289 191 314 142 324 87 297 
173 269 5 137 125 303 149 260 378 
296 228 277 131 207 393 108 405 128 
372 145 254 110 226 23 360 101 320 
390 27 194 290 40 169 236 366 46 
404 79 415 89 408 352 205 350 332 
99 16 270 3 248 204 107 221 143 
20 344 185 15 129 55 184 45 242 
61 100 379 106 284 41 383 263 73 
287 33 317 175 91 280 181 246 39 
56 157 210 347 97 274 251 386 158 
10 188 345 209 132 65 298 126 388 
28 178 262 172 78 190 293 122 377 
200 291 368 22 340 237 86 163 394 
135 337 285 370 255 321 397 57 34 
406 281 313 123 170 231 304 218 230 
409 69 112 168 282 381 275 167 1 
292 133 147 295 150 104 333 14 62 
323 328 60 336 203 208 183 371 330 
374 189 302 42 138 84 214 265 44 
233 220 357 164 153 90 299 216 361 
278 48 177 266 319 81 407 151 193 
318 402 159 114 160 83 2 140 148 
414 179 272 380 249 222 52 13 235 
67 118 174 127 300 398 146 389 241 
43 59 348 119 74 105 375 82 232 
364 346 196 80 192 359 155 76 341 
219 
type 1 415 int
1 1 1 1 1 1 1 1 1 
1 1 1 1 1 1 1 1 1 
1 1 1 1 1 1 1 1 1 
1 1 1 1 1 1 1 1 1 
1 1 1 1 1 1 1 1 1 
1 1 1 1 1 1 1 1 1 
1 1 1 1 1 1 1 1 1 
1 1 1 1 1 1 1 1 1 
1 1 1 1 1 1 1 1 1 
1 1 1 1 1 1 1 1 1 
1 1 1 1 1 1 1 1 1 
1 1 1 1 1 1 1 1 1 
1 1 1 1 1 1 1 1 1 
1 1 1 1 1 1 1 1 1 
1 1 1 1 1 1 1 1 1 
1 1 1 1 1 1 1 1 1 
1 1 1 1 1 1 1 1 1 
1 1 1 1 1 1 1 1 1 
1 1 1 1 1 1 1 1 1 
1 1 1 1 1 1 1 1 1 
1 1 1 1 1 1 1 1 1 
1 1 1 1 1 1 1 1 1 
1 1 1 1 1 1 1 1 1 
1 1 1 1 1 1 1 1 1 
1 1 1 1 1 1 1 1 1 
1 1 1 1 1 1 1 1 1 
1 1 1 1 1 1 1 1 1 
1 1 1 1 1 1 1 1 1 
1 1 1 1 1 1 1 1 1 
1 1 1 1 1 1 1 1 1 
1 1 1 1 1 1 1 1 1 
1 1 1 1 1 1 1 1 1 
1 1 1 1 1 1 1 1 1 
1 1 1 1 1 1 1 1 1 
1 1 1 1 1 1 1 1 1 
1 1 1 1 1 1 1 1 1 
1 1 1 1 1 1 1 1 1 
1 1 1 1 1 1 1 1 1 
1 1 1 1 1 1 1 1 1 
1 1 1 1 1 1 1 1 1 
1 1 1 1 1 1 1 1 1 
1 1 1 1 1 1 1 1 1 
1 1 1 1 1 1 1 1 1 
1 1 1 1 1 1 1 1 1 
1 1 1 1 1 1 1 1 1 
1 1 1 1 1 1 1 1 1 
1 
i 3 415 int
0 0 0 0 0 0 0 0 0 
0 0 0 0 0 0 0 0 0 
0 0 0 0 0 0 0 0 0 
0 0 0 0 0 0 0 0 0 
0 0 0 0 0 0 0 0 0 
0 0 0 0 0 0 0 0 0 
0 0 0 0 0 0 0 0 0 
0 0 0 0 0 0 0 0 0 
0 0 0 0 0 0 0 0 0 
0 0 0 0 0 0 0 0 0 
0 0 0 0 0 0 0 0 0 
0 0 0 0 0 0 0 0 0 
0 0 0 0 0 0 0 0 0 
0 0 0 0 0 0 0 0 0 
0 0 0 0 0 0 0 0 0 
0 0 0 0 0 0 0 0 0 
0 0 0 0 0 0 0 0 0 
0 0 0 0 0 0 0 0 0 
0 0 0 0 0 0 0 0 0 
0 0 0 0 0 0 0 0 0 
0 0 0 0 0 0 0 0 0 
0 0 0 0 0 0 0 0 0 
0 0 0 0 0 0 0 0 0 
0 0 0 0 0 0 0 0 0 
0 0 0 0 0 0 0 0 0 
0 0 0 0 0 0 0 0 0 
0 0 0 0 0 0 0 0 0 
0 0 0 0 0 0 0 0 0 
0 0 0 0 0 0 0 0 0 
0 0 0 0 0 0 0 0 0 
0 0 0 0 0 0 0 0 0 
0 0 0 0 0 0 0 0 0 
0 0 0 0 0 0 0 0 0 
0 0 0 0 0 0 0 0 0 
0 0 0 0 0 0 0 0 0 
0 0 0 0 0 0 0 0 0 
0 0 0 0 0 0 0 0 0 
0 0 0 0 0 0 0 0 0 
0 0 0 0 0 0 0 0 0 
0 0 0 0 0 0 0 0 0 
0 0 0 0 0 0 0 0 0 
0 0 0 0 0 0 0 0 0 
0 0 0 0 0 0 0 0 0 
0 0 0 0 0 0 0 0 0 
0 0 0 0 0 0 0 0 0 
0 0 0 0 0 0 0 0 0 
0 0 0 0 0 0 0 0 0 
0 0 0 0 0 0 0 0 0 
0 0 0 0 0 0 0 0 0 
0 0 0 0 0 0 0 0 0 
0 0 0 0 0 0 0 0 0 
0 0 0 0 0 0 0 0 0 
0 0 0 0 0 0 0 0 0 
0 0 0 0 0 0 0 0 0 
0 0 0 0 0 0 0 0 0 
0 0 0 0 0 0 0 0 0 
0 0 0 0 0 0 0 0 0 
0 0 0 0 0 0 0 0 0 
0 0 0 0 0 0 0 0 0 
0 0 0 0 0 0 0 0 0 
0 0 0 0 0 0 0 0 0 
0 0 0 0 0 0 0 0 0 
0 0 0 0 0 0 0 0 0 
0 0 0 0 0 0 0 0 0 
0 0 0 0 0 0 0 0 0 
0 0 0 0 0 0 0 0 0 
0 0 0 0 0 0 0 0 0 
0 0 0 0 0 0 0 0 0 
0 0 0 0 0 0 0 0 0 
0 0 0 0 0 0 0 0 0 
0 0 0 0 0 0 0 0 0 
0 0 0 0 0 0 0 0 0 
0 0 0 0 0 0 0 0 0 
0 0 0 0 0 0 0 0 0 
0 0 0 0 0 0 0 0 0 
0 0 0 0 0 0 0 0 0 
0 0 0 0 0 0 0 0 0 
0 0 0 0 0 0 0 0 0 
0 0 0 0 0 0 0 0 0 
0 0 0 0 0 0 0 0 0 
0 0 0 0 0 0 0 0 0 
0 0 0 0 0 0 0 0 0 
0 0 0 0 0 0 0 0 0 
0 0 0 0 0 0 0 0 0 
0 0 0 0 0 0 0 0 0 
0 0 0 0 0 0 0 0 0 
0 0 0 0 0 0 0 0 0 
0 0 0 0 0 0 0 0 0 
0 0 0 0 0 0 0 0 0 
0 0 0 0 0 0 0 0 0 
0 0 0 0 0 0 0 0 0 
0 0 0 0 0 0 0 0 0 
0 0 0 0 0 0 0 0 0 
0 0 0 0 0 0 0 0 0 
0 0 0 0 0 0 0 0 0 
0 0 0 0 0 0 0 0 0 
0 0 0 0 0 0 0 0 0 
0 0 0 0 0 0 0 0 0 
0 0 0 0 0 0 0 0 0 
0 0 0 0 0 0 0 0 0 
0 0 0 0 0 0 0 0 0 
0 0 0 0 0 0 0 0 0 
0 0 0 0 0 0 0 0 0 
0 0 0 0 0 0 0 0 0 
0 0 0 0 0 0 0 0 0 
0 0 0 0 0 0 0 0 0 
0 0 0 0 0 0 0 0 0 
0 0 0 0 0 0 0 0 0 
0 0 0 0 0 0 0 0 0 
0 0 0 0 0 0 0 0 0 
0 0 0 0 0 0 0 0 0 
0 0 0 0 0 0 0 0 0 
0 0 0 0 0 0 0 0 0 
0 0 0 0 0 0 0 0 0 
0 0 0 0 0 0 0 0 0 
0 0 0 0 0 0 0 0 0 
0 0 0 0 0 0 0 0 0 
0 0 0 0 0 0 0 0 0 
0 0 0 0 0 0 0 0 0 
0 0 0 0 0 0 0 0 0 
0 0 0 0 0 0 0 0 0 
0 0 0 0 0 0 0 0 0 
0 0 0 0 0 0 0 0 0 
0 0 0 0 0 0 0 0 0 
0 0 0 0 0 0 0 0 0 
0 0 0 0 0 0 0 0 0 
0 0 0 0 0 0 0 0 0 
0 0 0 0 0 0 0 0 0 
0 0 0 0 0 0 0 0 0 
0 0 0 0 0 0 0 0 0 
0 0 0 0 0 0 0 0 0 
0 0 0 0 0 0 0 0 0 
0 0 0 0 0 0 0 0 0 
0 0 0 0 0 0 0 0 0 
0 0 0 0 0 0 0 0 0 
0 0 0 0 0 0 0 0 0 
0 0 0 0 0 0 0 0 0 
0 0 0 0 0 0 0 0 0 
0 0 0 
v 3 415 double
0 0 0 0 0 0 0 0 0 
0 0 0 0 0 0 0 0 0 
-0.0336401 -0.161126 0.00370182 0.0118443 -0.0075923 -7.62236e-05 0 0 0 
0 0 0 0.00414737 -0.00489471 -0.000186696 0.102932 -0.0803321 0.000896161 
-0.0491117 0.0179056 -0.00204946 -0.104916 -0.0429201 -0.0061682 0.149325 0.0050962 0.00755861 
-0.057193 0.0317773 -0.00109953 -0.117667 -0.0263629 -0.0101639 0.105823 0.0339552 0.0102401 
-0.00414737 0.00489471 0.000186696 0 0 0 -0.173774 -0.0220684 -0.00576998 
0 0 0 0.00470274 0.0199182 0.000659048 -0.000543072 -0.000632518 -4.09821e-05 
0 0 0 0 0 0 -9.11326e-05 2.98967e-05 -2.75726e-06 
0 0 0 -0.0974256 -0.024047 0.00866913 0.0974256 0.024047 -0.00866913 
0.0503688 0.0825134 0.0055095 0.000725341 -0.00199433 -9.98065e-05 0 0 0 
0.0909243 0.129319 -0.00259954 0 0 0 0 0 0 
0.0204726 0.0198871 -0.000635678 0 0 0 0.000543072 0.000632518 4.09821e-05 
0 0 0 0 0 0 0 0 0 
0 0 0 0 0 0 0 0 0 
-0.000725341 0.00199433 9.98065e-05 0 0 0 0.00263766 -0.0244208 0.000616102 
0 0 0 0 0 0 0 0 0 
0.016051 -0.0294851 -0.000234706 0 0 0 0.0100584 -0.0904914 -0.00607879 
0 0 0 0.0614555 -0.117454 0.00548905 0 0 0 
0.000815737 -0.00249294 -0.00012767 0.0301826 -0.139849 -0.00539102 -0.0595638 -0.0383444 -0.00325125 
-0.000943879 -0.00123533 0.000100931 -0.00263766 0.0244208 -0.000616102 0 0 0 
0 0 0 -0.000815737 0.00249294 0.00012767 -0.00209357 -0.0108141 -0.000449245 
-0.00384777 -0.118409 0.00121627 0.00370791 -0.0110307 0.000272724 0.0595638 0.0383444 0.00325125 
-0.0996962 -0.0148683 -0.00521857 0.0836452 0.0443534 0.00545328 -0.0324436 -0.0800976 -0.00353198 
-0.0930562 0.040458 0.011122 0.107628 -0.0417123 -0.0106189 -0.0199129 -0.0232188 0.000641961 
0.106327 0.0405231 0.0148896 0 0 0 -0.0614555 0.117454 -0.00548905 
-0.0961396 -0.0911364 -0.00142788 0 0 0 0 0 0 
-0.0322876 0.132029 0.00563674 0.0547174 -0.00705235 6.87958e-05 -0.00176771 -0.000827592 -3.29071e-05 
-0.0671458 -0.093395 -0.0114371 0.00209357 0.0108141 0.000449245 -0.00377603 0.105884 -0.00127486 
0.00176771 0.000827592 3.29071e-05 0 0 0 0.0178722 0.0813518 0.00302895 
0.00336267 0.0220207 -0.00125312 -0.0667816 0.130528 0.00159117 0 0 0 
0.0961396 0.0911364 0.00142788 0 0 0 0 0 0 
-0.0486964 0.0384284 -0.00052864 0 0 0 -0.0124169 -0.146093 -0.00836591 
0 0 0 0.0350361 0.0152682 0.00154532 0 0 0 
0.00114605 -0.000940864 -2.8263e-05 0 0 0 0 0 0 
0.0328557 -0.0652606 0.00328409 -0.0376112 -0.0177581 -0.00142068 0.0342244 0.00384831 0.000298994 
0 0 0 -0.00066735 -0.00183634 -9.67136e-05 0.048731 -0.0830656 0.00183294 
0 0 0 0 0 0 0 0 0 
0.00338686 0.0139098 0.00112169 0.00186291 -0.00154721 -4.55116e-05 0.0545653 0.0324924 0.00969231 
0 0 0 -0.00520744 -0.00534214 0.000403554 -0.0455187 -0.0510579 0.00863675 
0.0687755 -0.151616 -0.0119872 -0.137681 0.0459735 0.00775008 0.137079 -0.0531228 -0.00728481 
-0.062886 -0.0784104 -0.00865044 0.0135151 -0.0580918 -0.000681664 0 0 0 
0.00248056 -0.0116937 -6.20712e-05 0.0411344 -0.0814751 -0.00185164 -0.132675 0.103845 -0.00139812 
0.1105 0.104741 0.00442788 -0.0457517 0.0834363 -0.00188753 0.000261556 -0.0182969 0.000466867 
0 0 0 0.0280988 0.126304 0.00552511 0 0 0 
-0.0502746 0.110292 -0.000747371 0 0 0 0.000601372 0.00714928 -0.00046527 
-0.0135151 0.0580918 0.000681664 0 0 0 -0.00367612 0.0150772 0.000204296 
-0.0330081 0.0847845 0.00127261 -0.1691 0.00529522 0.0100997 0.0315516 -0.0783771 -0.00544793 
0 0 0 -0.000261556 0.0182969 -0.000466867 -0.00969378 -0.0173835 -9.93751e-05 
-0.000197779 1.0277e-05 -1.24276e-06 0.00212917 0.0173565 -0.000157526 0 0 0 
0 0 0 0 0 0 0.137548 0.0730819 -0.0046518 
0 0 0 0 0 0 0 0 0 
0 0 0 -0.0118476 -0.00162956 0.000469846 0.0265929 -0.0611962 0.00104745 
0 0 0 -0.145502 0.0159889 -0.00597282 0.145502 -0.0159889 0.00597282 
-0.0121546 -0.0308351 0.00135322 0 0 0 0.00969378 0.0173835 9.93751e-05 
0 0 0 0.0118476 0.00162956 -0.000469846 0.0040652 -0.104802 -0.00439256 
-0.109224 -0.048849 -0.00751572 0 0 0 -0.0148786 -0.0856156 0.00465383 
0 0 0 0.00335928 -0.00792126 -0.000444876 0 0 0 
0 0 0 0.109552 -0.0590487 -0.00640413 0.0121546 0.0308351 -0.00135322 
0.00924909 -0.0312481 0.000450491 -0.115595 -0.0821249 0.00920115 0 0 0 
0 0 0 -0.0040652 0.104802 0.00439256 0.0826312 0.110045 0.00646827 
0.032507 -0.0507084 -0.000889368 0 0 0 -0.133165 0.00875675 0.0071317 
0 0 0 0 0 0 0 0 0 
-0.0942625 -0.0219356 0.00141943 0.112235 0.0900462 -0.00875628 0.00878577 -0.0537297 0.00351162 
0 0 0 -0.0470748 0.0445415 0.000270537 0 0 0 
-0.0060824 -0.0106482 -0.000147119 0.00663489 -0.0048242 0.000149166 -0.0110133 0.00250925 -0.000647207 
0.0960268 0.0506744 -0.00122271 0 0 0 0.0145678 0.0061669 0.000618831 
0.0384912 0.135908 -0.00538139 -0.00663489 0.0048242 -0.000149166 0.0380232 -0.0473048 0.00217625 
-0.0197653 -0.116858 -0.00153127 0 0 0 -0.0933339 -0.0115039 -0.0078769 
-0.0635789 -0.0951559 -0.000959074 0 0 0 0 0 0 
0.0060824 0.0106482 0.000147119 0 0 0 -0.103197 -0.111855 0.00205478 
0 0 0 -0.0519751 -0.0131663 0.00202038 0 0 0 
0.0845481 0.0652336 0.00436528 0.0748586 -0.123346 -0.00105047 0 0 0 
0 0 0 0.126745 -0.0247807 -0.00441572 0.0934247 0.0218846 0.00169804 
0.0519751 0.0131663 -0.00202038 -0.0380232 0.0473048 -0.00217625 0.0129657 0.0945288 0.0027954 
0.0280537 0.081613 0.000915438 0.0355252 0.0135429 4.36362e-05 0 0 0 
-0.126745 0.0247807 0.00441572 0.0368764 -0.0267319 -0.00146586 0 0 0 
0 0 0 -0.0832936 0.119937 0.00173838 0.00843495 0.0034096 -0.000687909 
-0.105336 -0.0111171 -0.00705829 0.105336 0.0111171 0.00705829 -0.0382088 0.0265367 0.00148161 
0.011105 0.0901657 -0.00376856 0.0138787 -0.0654068 -0.000514539 0.0270883 -0.0924626 -0.0040232 
0 0 0 0 0 0 0 0 0 
0 0 0 0 0 0 0 0 0 
0.0364343 -0.0311634 -0.000347808 0 0 0 0 0 0 
-0.0572281 -0.154634 0.00399495 -0.0894046 -0.0133175 -0.00366606 6.91139e-05 -2.55462e-05 -3.16441e-06 
0 0 0 0 0 0 0 0 0 
-0.0230613 0.064997 0.000680768 -0.094289 -0.038412 0.0063218 0.110646 0.00111225 -0.00637626 
0.0170148 -0.0581218 -0.000599184 0 0 0 -0.0379781 -0.0522288 7.36218e-05 
0 0 0 0.0893355 0.0133431 0.00366922 -0.0228274 -0.0645154 0.000447385 
-0.0170148 0.0581218 0.000599184 -0.0567229 0.145956 0.00310688 0 0 0 
-0.0618102 0.0430647 -0.00489374 0.0228274 0.0645154 -0.000447385 0 0 0 
0 0 0 -0.00717455 0.0377096 -0.000111775 0 0 0 
0 0 0 0 0 0 0 0 0 
0 0 0 0.0379781 0.0522288 -7.36218e-05 0.114132 0.0733153 0.000330676 
0 0 0 0 0 0 -0.00499908 -0.0188898 0.000134117 
0 0 0 0 0 0 0 0 0 
-0.00125381 -0.0358368 -0.000496876 0 0 0 0 0 0 
0 0 0 0.00490671 0.0382535 0.000568114 0 0 0 
0 0 0 0.0120862 0.00911049 0.000196689 -0.00928874 -0.0837028 -0.00575535 
-0.124639 -0.0565363 -0.010034 0 0 0 0.012667 -0.0579736 -0.00364879 
-0.0392357 -0.0117689 0.0010857 0.0392357 0.0117689 -0.0010857 -0.0666498 -0.020881 0.00277451 
0.0808568 -0.0331833 0.00569555 0 0 0 0.0374795 -0.103596 0.00460998 
0.0503806 -0.0612375 0.0170417 0.0671362 -0.0801857 -0.010093 0.00158244 -0.00188937 -1.18506e-05 
-0.0268515 -0.0574546 -0.00192572 -0.0808568 0.0331833 -0.00569555 -0.0921788 0.0553736 -0.0034511 
0 0 0 0.00928874 0.0837028 0.00575535 0.0742584 0.117774 -0.00700772 
-0.00766788 0.0768633 0.00351468 0 0 0 -0.0101213 0.00402982 -2.12755e-05 
-0.0148022 -0.0208283 -0.00029254 0 0 0 0 0 0 
0 0 0 0.0438669 0.0749487 -0.000858687 0 0 0 
0 0 0 0 0 0 0.00572475 0.096126 0.00762685 
0.0210736 -0.0360999 -0.000631138 0.0325955 0.0446976 0.00176076 0.00334529 -0.145853 0.000347455 
0.0334538 -0.0235872 0.00328588 -0.0416822 -0.0401449 0.00102162 0 0 0 
-0.00361547 0.00668212 1.63493e-06 0.0148022 0.0208283 0.00029254 0 0 0 
0 0 0 0.0319938 -0.0805104 -0.00487627 0 0 0 
-0.0334538 0.0235872 -0.00328588 0 0 0 -0.0980659 -0.0674612 0.00479842 
0 0 0 0.035471 0.0450856 -0.00132996 -0.0192371 0.0280372 0.0011521 
0.00464744 0.147898 -0.000162857 0.0980659 0.0674612 -0.00479842 0 0 0 
-0.00358971 8.41165e-05 -0.000199688 0.00358971 -8.41165e-05 0.000199688 0 0 0 
0 0 0 0 0 0 -0.0319938 0.0805104 0.00487627 
-0.000859908 -0.00999474 -0.000880644 -0.00245791 0.000266204 -2.78441e-05 0.00245791 -0.000266204 2.78441e-05 
-0.00341894 0.00995205 -0.000509114 -0.000329007 -0.000364786 1.73271e-05 0 0 0 
0 0 0 0 0 0 0 0 0 
3.32132e-06 -6.0176e-06 -2.65838e-07 0 0 0 0.000859908 0.00999474 0.000880644 
0 0 0 0 0 0 -0.0908185 0.0087016 0.000894283 
0.0908185 -0.0087016 -0.000894283 -0.0254502 -0.090955 0.00144283 0 0 0 
0 0 0 0.00872369 -0.031901 0.00253634 0 0 0 
0 0 0 0 0 0 0 0 0 
-3.32132e-06 6.0176e-06 2.65838e-07 0 0 0 0.0257792 0.0913198 -0.00146016 
-0.0293819 -0.10404 0.000283162 0 0 0 -0.0498001 0.0166577 5.8377e-05 
0.0498001 -0.0166577 -5.8377e-05 -0.0569849 -0.0863914 0.002461 0 0 0 
-0.00872369 0.031901 -0.00253634 0.0828762 -0.0555988 0.00531785 0 0 0 
-0.0490504 -0.0464134 0.00280537 0.0733215 -0.0324093 -0.000899786 0 0 0 
0 0 0 -0.0734219 0.0186052 0.000816999 -0.0821732 0.0289317 -0.00406688 
-0.0091332 -0.00244553 0.000508182 -0.0868987 0.0219545 0.00487875 -0.0729452 0.00258461 -0.00573401 
0 0 0 0 0 0 0.102804 0.0854351 -0.00110016 
-0.00070298 0.026667 -0.00125098 -0.0100455 -0.142846 -0.0140404 -0.0280372 -0.0080322 -0.00111207 
-0.0403109 -0.00956807 0.00275763 0.0403109 0.00956807 -0.00275763 0.11565 0.0366587 -0.00782051 
0.0769078 0.104016 0.00430919 0 0 0 0 0 0 
0 0 0 -0.0836084 0.0175187 -0.000553613 0.0836084 -0.0175187 0.000553613 