ITEM: TIMESTEP
3500
ITEM: NUMBER OF ATOMS
415
ITEM: BOX BOUNDS pp pp pp
0.01925 0.126809
0.01925 0.126809
0 0.0055
ITEM: ATOMS id type x y z ix iy iz vx vy vz fx fy fz omegax omegay omegaz radius 
1 1 0.0467625 0.100908 0.00294966 0 0 0 0.198178 0.137393 0.0262055 -1.73956 0.155021 -0.0554502 7.34206 -0.981102 73.4409 0.0025 
2 1 0.0319511 0.11488 0.00272942 0 0 0 -0.079073 0.10574 0.00496868 1.31992 -5.18558 -0.287103 0.811031 -0.186718 7.93356 0.0025 
3 1 0.0790924 0.0758957 0.00282932 0 0 0 -0.115741 0.1914 0.0139501 3.96413 5.43925 0.294397 1.00426 -1.49395 22.8617 0.0025 
4 1 0.101801 0.0616556 0.00266065 0 0 0 -0.00615149 0.0242118 -0.000929295 -1.0806 4.06541 -0.159685 -0.0479332 0.0666999 2.05645 0.0025 
5 1 0.0431068 0.0658494 0.00284855 0 0 0 -0.127049 0.131888 0.0196932 0.455315 2.98336 0.303873 3.7033 0.0770915 -40.2036 0.0025 
6 1 0.0450686 0.050435 0.00246356 0 0 0 0.322901 -0.0982418 -0.0297234 -3.05571 0.456196 -0.619772 -5.19367 4.01664 -13.4481 0.0025 
7 1 0.0356874 0.0353181 0.00258641 0 0 0 -0.0958225 0.0132005 -0.0138265 -0.0179397 -0.128059 -0.853251 0.0177844 -0.598083 4.18071 0.0025 
8 1 0.0806569 0.0536644 0.00286502 0 0 0 0 0 0 0 0 0 0 0 0 0.0025 
9 1 0.0553375 0.0401321 0.00253162 0 0 0 0.119748 0.175786 -0.0203625 2.52501 -1.71784 -0.100251 -5.68521 -3.80285 5.95352 0.0025 
10 1 0.109003 0.087238 0.00261146 0 0 0 -0.0528785 0.227852 -0.0207235 0.892104 -0.930195 -0.497757 -1.67043 -1.75524 -20.1374 0.0025 
11 1 0.0755492 0.0516443 0.002644 0 0 0 0.0173502 -0.281238 0.00547074 0.708569 -1.66796 -0.0507769 -2.2831 -0.401372 -10.1772 0.0025 
12 1 0.0211018 0.055977 0.00270709 0 0 0 -0.0920124 -0.160424 0.00105601 -2.66921 -4.61911 0.0310807 0.922408 -0.393586 20.5828 0.0025 
13 1 0.0900786 0.117301 0.00284823 0 0 0 0.0101976 -0.00118684 0.0242523 0.937203 -3.33356 0.146063 -2.37489 -0.806141 -17.4041 0.0025 
14 1 0.0758402 0.102577 0.00275869 0 0 0 0.156782 0.23333 0.000115177 1.33288 1.67699 -0.12121 2.4427 -1.58749 -4.86993 0.0025 
15 1 0.0984633 0.0789148 0.00259663 0 0 0 0.0515171 0.191473 -0.0286909 -8.57707 -8.08471 -0.792913 2.75967 -1.11275 41.2821 0.0025 
16 1 0.0495303 0.0773189 0.00280564 0 0 0 0.235881 0.354521 -0.00374181 -1.63722 3.88008 -0.00447547 -2.36252 -1.05275 -72.432 0.0025 
17 1 0.076002 0.0442185 0.00250567 0 0 0 0.332676 -0.278395 -0.00855539 2.97049 -2.11709 -0.0728716 2.16452 1.86844 23.0499 0.0025 
18 1 0.0960772 0.0602798 0.0027827 0 0 0 -0.0733774 0.32251 -0.00166022 -2.77146 2.1234 -0.0697609 1.13344 -0.541434 -51.4009 0.0025 
19 1 0.0816369 0.0304069 0.00274453 0 0 0 -0.0947133 -0.105405 0.00508164 -2.8772 -3.25568 0.162321 -0.0183988 -0.00100583 -0.352322 0.0025 
20 1 0.0703857 0.0779943 0.0025199 0 0 0 0.117636 -0.129194 -0.014991 1.03479 -0.628955 -0.0488781 0.315124 1.78909 -12.966 0.0025 
21 1 0.0679013 0.0454846 0.00293289 0 0 0 0.0192935 -0.0712801 0.0198766 4.78503 -3.92486 1.05761 -1.79011 -3.22648 -3.57131 0.0025 
22 1 0.092728 0.0922304 0.00250414 0 0 0 -0.141958 0.0314947 -0.0241545 3.8145 -0.357493 -0.48614 1.92265 -1.45066 0.843684 0.0025 
23 1 0.120677 0.0703814 0.00275248 0 0 0 0.137082 -0.126445 0.00822105 2.46745 2.71767 0.14426 0.458367 -0.175285 -2.65027 0.0025 
24 1 0.11272 0.0297851 0.00253117 0 0 0 0.11027 -0.0233221 -0.0103711 -4.99488 -2.66389 -0.165507 0.186361 -0.295304 -5.53489 0.0025 
25 1 0.0988508 0.0444025 0.002506 0 0 0 0.0084369 -0.0740725 -0.00440246 1.56686 -6.57799 -0.38183 -0.857449 0.396792 2.00154 0.0025 
26 1 0.0506443 0.0215347 0.00297816 0 0 0 -0.0134485 -0.0174818 0.000513205 -2.2056 -2.86738 0.0853205 -0.0825197 0.0501074 -0.455523 0.0025 
27 1 0.0493516 0.0726238 0.00300041 0 0 0 -0.130434 0.134333 0.0348445 -1.62937 2.51837 0.5146 2.21113 1.71652 -70.3819 0.0025 
28 1 0.0723639 0.0876422 0.00271471 0 0 0 0.0139744 -0.00821965 -0.00175796 -0.19119 0.934797 -0.122671 -0.560837 -0.395841 1.00207 0.0025 
29 1 0.11152 0.0245462 0.00285868 0 0 0 -0.00692658 0.00313799 0.000611151 -1.47976 0.839649 0.150991 -0.0230382 0.140477 -0.284586 0.0025 
30 1 0.119201 0.0268517 0.00278762 0 0 0 -0.200743 0.0687307 0.0155382 2.49162 -0.543466 0.0733177 2.58161 1.70375 -39.0425 0.0025 
31 1 0.0909977 0.0263005 0.00282853 0 0 0 -0.292888 -0.168308 -0.00647806 4.71596 -1.37698 0.176922 1.10397 -5.49395 -23.2969 0.0025 
32 1 0.0916733 0.0311215 0.00291723 0 0 0 -0.216038 0.196354 0.0148811 -3.3138 0.874529 0.139699 0.337656 0.536505 -38.4739 0.0025 
33 1 0.0957735 0.0828876 0.00285031 0 0 0 -0.00691028 0.0123957 0.000420119 -1.25644 2.17324 0.0761015 0.221493 0.0937246 0.881 0.0025 
34 1 0.0549412 0.0971832 0.00291312 0 0 0 -0.0518077 -0.383088 0.0144543 -3.60714 -1.78906 0.302647 1.41426 1.88831 54.9701 0.0025 
35 1 0.0653868 0.0210041 0.00250213 0 0 0 -0.258224 -0.0928496 -0.0220827 -2.8723 -1.1364 -0.26339 7.45444 -3.20469 -73.13 0.0025 
36 1 0.12374 0.024794 0.00277825 0 0 0 0.124709 -0.0547105 0.0040089 1.7381 0.958282 0.105605 0.960131 1.9179 11.9539 0.0025 
37 1 0.0372604 0.0581157 0.00279203 0 0 0 -0.12291 0.418654 -0.00840997 -2.17196 6.8504 -0.181658 0.502672 -0.293307 -21.0557 0.0025 
38 1 0.0423867 0.0544248 0.00255892 0 0 0 -0.176089 -0.267042 -0.0383576 -1.15089 -2.95515 -0.955524 0.0263004 -4.99893 -32.5403 0.0025 
39 1 0.0523962 0.084019 0.00273382 0 0 0 -0.0302958 -0.15176 -0.00206906 4.26292 -0.686098 -0.16841 -0.387893 0.25025 -5.37992 0.0025 
40 1 0.0887497 0.0727047 0.0025042 0 0 0 0.0505428 0.0998408 -0.00536147 2.12877 4.61682 -0.244694 0.332753 1.10419 23.7407 0.0025 
41 1 0.0401753 0.0832854 0.00271421 0 0 0 0.0539851 0.105612 -0.0034355 0.0570968 1.60875 -0.206903 0.0655371 -0.0579522 -0.908212 0.0025 
42 1 0.0363622 0.106721 0.00249797 0 0 0 -0.170218 -0.0882936 -0.0129995 1.55451 -5.61906 -0.0524964 -0.390976 -1.16747 -0.257738 0.0025 
43 1 0.048492 0.121995 0.00257651 0 0 0 0.0436757 0.0239566 0.000642617 4.01339 2.27221 0.0624597 -0.0177789 -0.189201 8.26013 0.0025 
44 1 0.094095 0.107295 0.00294803 0 0 0 -0.0628833 0.170366 0.0112441 1.46987 -0.510585 0.0848946 -0.163531 -0.103819 0.623734 0.0025 
45 1 0.0378543 0.0792157 0.00280862 0 0 0 -0.0813002 -0.0304739 0.00277486 -3.11548 3.261 0.086911 -0.52742 -0.124731 12.629 0.0025 
46 1 0.0322761 0.0750691 0.00270255 0 0 0 -0.215595 0.159431 0.00360009 -5.77794 4.22505 0.116473 2.37004 3.49777 -12.9028 0.0025 
47 1 0.0214672 0.0254152 0.00250339 0 0 0 -0.337278 0.105751 -0.0153927 0 0 0 1.81424 0.761519 -33.648 0.0025 
48 1 0.0984706 0.110756 0.00256386 0 0 0 0 0 0 0 0 0 0 0 0 0.0025 
49 1 0.0560097 0.0291503 0.00287537 0 0 0 0.0254895 -0.0613849 0.0208017 5.37067 -7.19318 0.42167 -2.81266 -0.674462 -23.1439 0.0025 
50 1 0.0647984 0.0568778 0.00267835 0 0 0 -0.00298336 0.00812473 1.67032e-05 -0.817948 2.25565 0.00334164 -0.0920311 -0.0322084 -0.771583 0.0025 
51 1 0.0459342 0.0459387 0.00287431 0 0 0 0.023267 -0.0560126 0.00380782 1.49707 -4.57189 0.368376 -0.80254 -0.894758 -8.38135 0.0025 
52 1 0.0812408 0.118051 0.00257771 0 0 0 -0.0508993 -0.0104743 -0.0106035 -2.0336 -6.75782 0.181463 -2.54102 0.271711 -1.16239 0.0025 
53 1 0.0957893 0.0517327 0.00296609 0 0 0 0.0844893 -0.251776 0.0112911 1.55241 -0.704988 0.275922 -1.14699 0.579145 27.8204 0.0025 
54 1 0.0268995 0.0513414 0.00291759 0 0 0 0 0 0 0 0 0 0 0 0 0.0025 
55 1 0.0252395 0.0792428 0.00251671 0 0 0 -0.0316188 -0.0206405 -0.0644955 -5.75102 -1.68396 -0.634947 -4.56527 -6.20767 -19.816 0.0025 
56 1 0.0650956 0.0848906 0.00276656 0 0 0 0.0449719 -0.066488 -0.00236445 2.78387 -3.63961 -0.144395 -0.244378 0.0832152 -7.01762 0.0025 
57 1 0.0466807 0.0962964 0.00236801 0 0 0 -0.0203391 0.0280486 -0.0537943 -1.77329 -0.176673 -0.49344 2.07112 -0.51743 -39.3889 0.0025 
58 1 0.107513 0.039038 0.00280421 0 0 0 -0.027823 -0.240039 0.0111798 3.73096 -3.23588 -0.262965 -4.84892 2.72221 11.8742 0.0025 
59 1 0.0588328 0.121514 0.00250217 0 0 0 0.136939 -0.0642634 -0.00566025 -1.91033 -1.95595 -0.11989 0.0188665 -0.203964 2.73871 0.0025 
60 1 0.101057 0.104083 0.0025172 0 0 0 -0.0816913 0.140448 -0.00875062 -4.27624 -2.13253 -0.17862 -0.345448 2.064 27.8427 0.0025 
61 1 0.0661272 0.0801373 0.00262569 0 0 0 -0.209944 0.184747 -0.00159613 3.76104 2.43636 -0.185113 1.32757 4.49302 9.66441 0.0025 
62 1 0.081975 0.103691 0.00297843 0 0 0 -0.0239037 -0.127188 0.0125 0.213963 0.93903 0.361741 0.445669 0.0781696 -4.40609 0.0025 
63 1 0.120702 0.0385216 0.0026769 0 0 0 0.143517 -0.0443086 -0.00115223 10.1071 1.65539 0.130771 -0.851532 0.910938 18.576 0.0025 
64 1 0.0594416 0.0493135 0.00280545 0 0 0 -0.0670826 0.0280407 0.0079703 3.57962 7.81781 -0.28809 -2.07145 6.821 -42.1548 0.0025 
65 1 0.0384373 0.0887874 0.00298594 0 0 0 0.0570723 0.0028215 0.00262429 3.39587 0.167883 0.159937 -3.79765e-05 0.000768174 -3.70209e-14 0.0025 
66 1 0.121144 0.033631 0.00248401 0 0 0 0.0414446 0.0957125 -0.0216491 8.44042 2.24879 -0.503789 0.562144 4.16174 77.7738 0.0025 
67 1 0.0300695 0.118938 0.00302058 0 0 0 -0.296136 -0.158385 0.0209613 -1.96845 6.39088 0.349745 3.14633 -0.197406 43.2633 0.0025 
68 1 0.0708545 0.0254581 0.00287867 0 0 0 0.0710702 0.0160395 0.0164738 -5.73983 3.3646 0.583186 -1.62546 3.317 8.22096 0.0025 
69 1 0.0803158 0.099312 0.00273717 0 0 0 -0.222381 0.064736 -0.00478135 -3.9324 1.08588 -0.322816 0.103012 -1.08194 -6.7621 0.0025 
70 1 0.0476836 0.0393775 0.0026421 0 0 0 -0.0719951 -0.0592441 -0.0162008 -1.20184 -1.61163 -0.120105 -2.98811 4.13089 32.7121 0.0025 
71 1 0.0676514 0.039655 0.00268675 0 0 0 0.0846743 0.071578 -0.00678573 1.57302 2.68933 -0.202352 0.0114709 0.0175814 0.0532476 0.0025 
72 1 0.0588431 0.0450123 0.0029419 0 0 0 0.255915 0.00922769 0.0192007 -1.083 -7.11656 0.331646 2.26846 1.9462 -22.5179 0.0025 
73 1 0.0794957 0.0817497 0.00248271 0 0 0 0.262804 -0.139482 -0.0173776 -5.28295 -2.13449 -0.131631 0.475802 3.81779 -21.0028 0.0025 
74 1 0.0989769 0.120542 0.00239033 0 0 0 0.125775 0.101068 -0.0360469 -2.30865 6.223 -0.215877 -7.61437 3.02488 -44.8716 0.0025 
75 1 0.117435 0.043919 0.00255592 0 0 0 -0.0121942 0.159823 -0.0176247 4.52843 7.51927 -0.17761 -0.367073 2.40518 34.2749 0.0025 
76 1 0.109622 0.123468 0.00295431 0 0 0 -0.0586885 0.0246805 0.0151644 -7.56355 -0.864658 0.222828 -0.257963 1.58862 -1.50991 0.0025 
77 1 0.120447 0.0564897 0.00274762 0 0 0 -0.0829104 -0.100306 -0.00293504 -2.41304 -3.19149 -0.0873788 0.213604 -0.0338895 -4.79723 0.0025 
78 1 0.0796037 0.0910799 0.00287755 0 0 0 -0.028575 -0.089551 0.00363826 -1.15515 -5.08166 0.187995 -0.121085 0.00969781 -6.24275 0.0025 
79 1 0.0573646 0.0744749 0.0029143 0 0 0 -0.104016 0.11569 0.01645 -1.97719 1.70672 0.575911 -3.85369 1.36152 17.2623 0.0025 
80 1 0.0756127 0.124829 0.00250431 0 0 0 -0.123987 0.195079 -0.00368655 -3.33071 3.65389 -0.107866 1.19575 1.48921 36.9388 0.0025 
81 1 0.0437836 0.112978 0.00274662 0 0 0 -0.167939 0.0179391 0.00183308 2.96916 -0.131132 -0.0112534 0.01632 0.0177678 2.75566 0.0025 
82 1 0.0259272 0.124293 0.00245296 0 0 0 0.185302 0.0439829 -0.013536 0 0 0 0.0337673 -0.142264 1.60698e-12 0.0025 
83 1 0.0251371 0.116138 0.00255134 0 0 0 0 0 0 0 0 0 0 0 0 0.0025 
84 1 0.0659611 0.108243 0.0024826 0 0 0 -0.176184 0.214555 -0.0213493 -2.939 3.24431 -0.348664 -2.87157 -0.127372 22.5643 0.0025 
85 1 0.101211 0.0483591 0.00264655 0 0 0 -0.217711 -0.0183035 -0.0282036 -0.170153 2.67246 -0.0608957 -0.527182 -1.25885 10.2632 0.0025 
86 1 0.116429 0.0921126 0.00254228 0 0 0 0.0263089 -0.256492 -0.0250344 0.190036 -2.15969 -0.210903 7.76273 -8.16449 -7.27096 0.0025 
87 1 0.112703 0.0644446 0.00290175 0 0 0 -0.212957 0.0850756 0.0225417 0.815393 -0.796415 -0.00768171 3.96919 -1.08437 41.5037 0.0025 
88 1 0.059495 0.0562658 0.00262222 0 0 0 0.382431 -0.154659 -0.00793261 6.36991 2.25215 0.0262277 0.956621 -3.91227 -50.7482 0.0025 
89 1 0.0737074 0.0737222 0.00265648 0 0 0 0.04969 0.0548 0.00115856 4.15522 4.47153 0.105835 0.52778 -0.448516 -1.42751 0.0025 
90 1 0.0893247 0.10826 0.00260419 0 0 0 -0.00559975 0.00196717 -0.000318966 -1.46987 0.510585 -0.0848946 -0.0571472 -0.0615432 0.623734 0.0025 
91 1 0.114443 0.082033 0.00285289 0 0 0 0.106905 -0.113648 0.0106845 1.30037 0.775968 0.147524 0.324206 1.4386 -31.9864 0.0025 
92 1 0.0445225 0.0225361 0.00262534 0 0 0 0 0 0 0 0 0 0 0 0 0.0025 
93 1 0.0325251 0.0521743 0.00293895 0 0 0 0.00867857 0.145657 0.0179719 1.15302 0.234011 0.187356 1.85213 -0.125254 -0.250949 0.0025 
94 1 0.0807651 0.0426189 0.00272431 0 0 0 0.166863 0.155397 0.002062 1.88029 1.77709 0.00273743 0.317187 -0.364934 1.02471 0.0025 
95 1 0.0498743 0.0492647 0.00253779 0 0 0 -0.103863 0.00773819 -0.00710679 -5.06774 0.379422 -0.400943 0.397882 -2.64253 -8.86393 0.0025 
96 1 0.0703661 0.0507786 0.00247106 0 0 0 0.0953941 -0.0166666 -0.0372465 -4.27139 1.93837 -0.350399 0.155662 0.631954 -55.3324 0.0025 
97 1 0.0227068 0.0874452 0.0029241 0 0 0 0.0431318 -0.0585038 0.038926 2.03425 -4.91031 1.0595 -4.46314 -1.05132 44.528 0.0025 
98 1 0.0871999 0.0231814 0.00286859 0 0 0 -0.0319482 0.000178847 0.0117379 3.31626 -2.04427 0.276411 -0.191584 -0.616561 12.2924 0.0025 
99 1 0.0447524 0.0756911 0.002816 0 0 0 -0.0748434 -0.0384268 7.03413e-06 3.19676 -4.35512 -0.0332497 -0.262378 0.459188 13.6656 0.0025 
100 1 0.0858892 0.0793768 0.00259227 0 0 0 -0.0406575 -0.195156 -0.00819745 -2.69628 1.10028 -0.418711 -0.833489 -1.3598 42.1833 0.0025 
101 1 0.0283279 0.0717881 0.00275345 0 0 0 0 0 0 0 0 0 0 0 0 0.0025 
102 1 0.108487 0.0436768 0.00246456 0 0 0 -0.0859717 0.121982 -0.0546494 4.68157 -3.46433 -0.80478 -0.859881 8.40201 0.652676 0.0025 
103 1 0.05331 0.0323697 0.00272507 0 0 0 0.0594759 -0.113821 -0.00366828 -5.03955 5.03662 -0.221803 -2.36796 -0.523362 8.63092 0.0025 
104 1 0.0563386 0.103074 0.00288851 0 0 0 0.00183848 0.0778715 0.00297038 -0.405434 5.07375 0.224888 0.497251 0.118793 4.01998 0.0025 
105 1 0.104876 0.122072 0.00271116 0 0 0 -0.2005 -0.0554244 -0.00781853 -0.609483 -0.0331606 0.0293551 0.0786851 -0.533615 1.57551 0.0025 
106 1 0.0245237 0.0836332 0.00277438 0 0 0 0.0900286 0.171813 -0.00226247 2.98156 -2.18825 -0.267413 11.1559 1.19385 29.4683 0.0025 
107 1 0.122128 0.0766531 0.00275809 0 0 0 -0.0192565 -0.049107 0.000649109 -1.67389 -4.17173 0.0576234 -0.145623 0.00166585 -4.19465 0.0025 
108 1 0.07606 0.0671776 0.00249464 0 0 0 -0.0345709 -0.109549 -0.00291689 4.24161 4.30702 -0.0271995 0.177906 -0.206227 0.24527 0.0025 
109 1 0.0915451 0.0381292 0.00292102 0 0 0 0.203067 -0.0156672 0.0139074 1.81218 -2.25411 0.114366 -1.19326 -1.52608 16.2198 0.0025 
110 1 0.0705552 0.07048 0.00252007 0 0 0 0.067217 0.182255 -0.0128541 -0.470698 -9.7452 -0.0975183 -1.26305 -1.25154 -30.437 0.0025 
111 1 0.0343521 0.0439943 0.00293349 0 0 0 0.0292927 0.180218 0.00657578 0 0 0 0.308813 0.284109 -8.66624 0.0025 
112 1 0.0845598 0.0978137 0.00282704 0 0 0 -0.0484885 -0.0266042 0.0180971 0.258832 2.35786 0.471484 0.646288 0.0109899 3.66675 0.0025 
113 1 0.0862456 0.050046 0.00308172 0 0 0 -0.0512993 0.127936 0.0555006 -0.911131 5.09831 0.679865 2.87237 -6.3239 -20.4515 0.0025 
114 1 0.0920668 0.113059 0.00266473 0 0 0 0.216822 -0.391408 -0.00599199 1.83288 -3.5626 -0.0040189 4.73574 2.92461 -20.6759 0.0025 
115 1 0.033022 0.0391132 0.00264887 0 0 0 0.0353556 0.0536647 -0.0382014 2.93435 7.37251 -0.378235 -9.10139 -0.758295 17.6465 0.0025 
116 1 0.0804238 0.0481686 0.00265499 0 0 0 -0.0874082 0.0308887 -5.36245e-06 -5.87692 2.03909 0.00699119 0.816733 2.31338 -8.34645 0.0025 
117 1 0.027618 0.0608562 0.00248144 0 0 0 0.195241 0.0326641 -0.00895166 -1.89576 0.205186 -0.0646377 -0.145021 -0.00555777 -3.33504 0.0025 
118 1 0.0450806 0.118836 0.00249472 0 0 0 0.339456 -0.199736 -0.00626263 -0.254254 -4.14067 -0.0616732 -0.893619 -2.67612 26.5719 0.0025 
119 1 0.0898705 0.121835 0.00248793 0 0 0 0.26351 0.149194 -0.0303711 -3.1444 3.90698 -0.837006 -4.03454 0.906348 15.0335 0.0025 
120 1 0.0699683 0.0340427 0.00263767 0 0 0 0 0 0 0 0 0 0 0 0 0.0025 
121 1 0.0220448 0.042235 0.00257007 0 0 0 -0.158047 0.0521841 -0.0123927 -4.04646 1.92532 -0.560149 1.96144 0.740809 -30.0036 0.0025 
122 1 0.106651 0.090944 0.00280094 0 0 0 -0.065718 0.119618 0.00326237 -3.74134 6.83382 0.196546 1.40056 0.61827 5.52124 0.0025 
123 1 0.108031 0.0960938 0.00252902 0 0 0 0 0 0 0 0 0 0 0 0 0.0025 
124 1 0.107861 0.0294059 0.00276851 0 0 0 -0.199796 -0.0194435 0.00906476 -0.1163 -1.73575 0.0530247 0.00173394 0.0113545 -0.286373 0.0025 
125 1 0.0594236 0.0664445 0.00281268 0 0 0 0 0 0 0 0 0 0 0 0 0.0025 
126 1 0.0550241 0.0881708 0.00270918 0 0 0 -0.228692 0.0246089 -0.0174126 -3.94515 -4.05092 -0.450598 1.77618 0.266561 -16.5793 0.0025 
127 1 0.070941 0.118953 0.00292624 0 0 0 -0.0897558 -0.00533795 0.0247779 1.75865 -0.422841 0.426802 1.01108 0.271873 12.3804 0.0025 
128 1 0.101622 0.067884 0.0025146 0 0 0 -0.211098 -0.0219905 -0.0433879 -0.111436 -4.55774 -0.634487 0.309237 -1.38793 -1.68692 0.0025 
129 1 0.111291 0.0781413 0.00284124 0 0 0 0.0185791 -0.144409 0.00162992 -0.601156 3.69802 0.267146 1.67138 -0.051572 24.6586 0.0025 
130 1 0.0243756 0.0385547 0.00264047 0 0 0 -0.158806 0.0273717 -0.0163431 -0.572554 -0.289834 -0.223404 -2.55527 -3.28359 47.4689 0.0025 
131 1 0.0473663 0.0676794 0.00269028 0 0 0 0.166909 0.136088 -0.00192023 -6.08075 -1.13509 0.193355 -2.62269 4.42747 -23.7522 0.0025 
132 1 0.033714 0.0885539 0.00276369 0 0 0 -0.0570723 -0.0028215 -0.00262429 -3.39587 -0.167883 -0.159937 -3.79765e-05 0.000768174 -3.70209e-14 0.0025 
133 1 0.065076 0.100545 0.00280013 0 0 0 0.0165524 0.0763607 0.00345881 0.131512 6.98332 0.141548 3.83244 -6.03274 10.6189 0.0025 
134 1 0.0639058 0.0431321 0.00276692 0 0 0 -0.0652984 -0.14853 0.00179083 -3.12262 -8.85799 0.181065 -1.86986 -1.13753 -11.2092 0.0025 
135 1 0.0283599 0.0940528 0.00271698 0 0 0 -0.183634 -0.0550818 0.00542821 0 0 0 0.0169389 -0.0564714 -7.18257e-13 0.0025 
136 1 0.111215 0.0532619 0.00280291 0 0 0 0.0233747 -0.080098 0.000682522 0.354249 -5.78582 -0.0312658 -0.146364 0.0271046 -0.550362 0.0025 
137 1 0.054251 0.0648713 0.00251141 0 0 0 0.106371 -0.225484 -0.00732464 1.13464 -2.60959 -0.179159 -2.23627 -2.06701 29.0948 0.0025 
138 1 0.0411273 0.106829 0.00284592 0 0 0 -0.0752554 0.205147 0.0265412 -7.37276 6.3735 0.499002 4.61102 5.7771 -23.2863 0.0025 
139 1 0.0830534 0.0215975 0.00285879 0 0 0 0.184894 -0.117187 0.00208728 -5.70185 5.40434 0.294502 2.52889 3.7686 -28.6274 0.0025 
140 1 0.0560378 0.115798 0.00256559 0 0 0 0.0737435 -0.0395634 -0.00559697 3.26989 -1.7543 -0.256015 -0.00155059 -0.00289019 -4.60837e-14 0.0025 
141 1 0.0397887 0.0334945 0.00291179 0 0 0 0.0904348 0.119308 0.0190109 6.88059 -2.41456 0.346792 -1.70868 -0.784311 11.3202 0.0025 
142 1 0.0876442 0.0636565 0.00264647 0 0 0 0.12555 -0.139778 -0.0211932 -5.60665 -6.72512 -0.149458 4.3992 -0.814442 22.146 0.0025 
143 1 0.0593505 0.0784067 0.00246425 0 0 0 -0.0190604 -0.146986 -0.0629578 -1.06403 4.09198 -0.884317 2.38722 -3.79106 12.7495 0.0025 
144 1 0.0287684 0.0396289 0.00301425 0 0 0 -0.311739 -0.0122187 0.0387947 -3.78721 -10.0813 1.06203 -6.019 7.25733 -58.9891 0.0025 
145 1 0.124374 0.0670139 0.00270709 0 0 0 5.32052e-05 7.1347e-05 -3.71066e-07 0.101494 0.135096 -0.000683924 0.000302366 -0.000288885 -0.0121908 0.0025 
146 1 0.0939937 0.120341 0.00290002 0 0 0 -0.15051 -0.0801137 0.0172424 7.99343 -1.35819 0.430528 -3.7394 2.578 -48.2862 0.0025 
147 1 0.0694462 0.100606 0.00295523 0 0 0 0.100053 0.22475 0.038121 -1.36379 -0.843242 0.630179 6.88004 5.39537 -84.664 0.0025 
148 1 0.0631713 0.11684 0.00264045 0 0 0 0.00880029 0.177215 -0.00988048 -5.01797 -3.28263 -0.377704 1.75401 -0.36858 21.4251 0.0025 
149 1 0.0833843 0.0660786 0.00301321 0 0 0 -0.243409 -0.0327358 0.0231489 -0.714319 -4.80628 0.358742 1.01285 -0.894147 18.7585 0.0025 
150 1 0.0422332 0.102469 0.00259512 0 0 0 -0.00652919 0.0282073 -0.0275794 5.86526 -2.16765 -0.49969 -3.49615 2.12785 9.77783 0.0025 
151 1 0.0621444 0.11212 0.00271882 0 0 0 0.143415 0.026606 -0.00837394 -0.735052 -0.628295 0.0216163 -0.101956 -0.0574633 -2.2797 0.0025 
152 1 0.102766 0.0525396 0.00297083 0 0 0 0.0140806 0.0589349 0.0151835 0.462107 4.53085 0.0828322 6.74744 0.751223 -76.24 0.0025 
153 1 0.0585095 0.108854 0.00294609 0 0 0 -0.243198 -0.277914 0.0142378 -0.707 -1.268 0.0521441 -1.39479 -0.135184 -25.9527 0.0025 
154 1 0.098759 0.0563702 0.00281909 0 0 0 -0.0467233 -0.0646089 0.000155114 0.486124 -1.0337 0.0189583 0.142013 0.190818 0.439722 0.0025 
155 1 0.0991831 0.125526 0.00303923 0 0 0 0.0137415 0.146544 0.0187286 -1.50205 -3.89486 0.269442 -0.622285 0.0172332 1.16122 0.0025 
156 1 0.0484908 0.0327973 0.00289861 0 0 0 -0.12331 -0.133573 0.00762047 3.31231 -6.80234 0.033079 0.483906 0.4515 -28.5783 0.0025 
157 1 0.0751833 0.083939 0.002837 0 0 0 -0.0609631 0.10011 0.0238732 2.10441 -3.60153 0.0319482 -0.73559 0.880332 -6.03264 0.0025 
158 1 0.101361 0.087056 0.00271906 0 0 0 0.17095 -0.209848 -0.002864 6.26722 -7.31037 -0.109457 -0.531924 -0.853675 30.6817 0.0025 
159 1 0.0870458 0.112865 0.002794 0 0 0 0.307991 -0.0786605 -0.00961086 6.09211 -1.45847 -0.189706 1.94029 4.78342 23.3922 0.0025 
160 1 0.122171 0.113607 0.00263661 0 0 0 0.00719274 0.0140497 0.00036359 0.928709 1.81407 0.0474908 -1.18815e-05 6.08272e-06 9.25989e-16 0.0025 
161 1 0.0759895 0.0609494 0.00271201 0 0 0 0.114343 0.230592 0.0187925 9.59139 -1.39463 0.707379 0.297231 -4.3508 41.5219 0.0025 
162 1 0.0251978 0.0341114 0.002993 0 0 0 0.00836739 0.00105796 0.0213246 0.594215 0.957488 0.725738 0.382043 2.68858 10.633 0.0025 
163 1 0.124462 0.0920939 0.00286196 0 0 0 -0.0170403 -0.0847359 0.00317384 -1.32191 -1.32385 0.0675116 2.4953 7.38797 -20.0014 0.0025 
164 1 0.0489414 0.108714 0.00271885 0 0 0 0.155886 0.20102 -0.00437812 4.62773 0.983597 0.117008 -3.14664 -4.18681 -32.11 0.0025 
165 1 0.0536217 0.0251915 0.00283923 0 0 0 -0.155123 -0.22098 0.000898512 -0.686298 -1.02684 -0.0189847 1.45396 -0.955234 13.4072 0.0025 
166 1 0.0847692 0.0338537 0.00256781 0 0 0 0.0315463 -0.00714712 -0.00567338 -0.993355 -4.13825 -0.197836 -1.31532 0.716213 2.25112 0.0025 
167 1 0.0332637 0.100779 0.00284697 0 0 0 0 0 0 0 0 0 0 0 0 0.0025 
168 1 0.0889967 0.0982128 0.00254052 0 0 0 -0.0719828 0.137524 -0.0223816 -3.95804 3.6942 -0.553042 0.0697031 1.12754 14.3774 0.0025 
169 1 0.0945467 0.0704653 0.00294676 0 0 0 -0.163266 -0.219842 0.00546982 -0.133783 -0.330241 0.0136676 0.847172 -1.3515 -27.5243 0.0025 
170 1 0.113213 0.0970989 0.00305634 0 0 0 0.13296 -0.220715 0.0201517 1.66126 -4.5026 0.231208 1.11742 1.39239 -31.5864 0.0025 
171 1 0.0793315 0.0249967 0.00301302 0 0 0 -0.0509666 0.193179 0.018909 0.948644 -0.127779 0.0481305 1.23218 2.66112 -23.4222 0.0025 
172 1 0.0691973 0.0911418 0.00285626 0 0 0 -0.0390376 0.0335655 0.00187015 -2.53197 0.35251 0.159896 -0.214561 0.0460498 0.990775 0.0025 
173 1 0.0226696 0.0663273 0.00260011 0 0 0 -0.00215317 -0.0523891 -0.00312903 -0.223117 -6.07255 -0.377295 0.177678 -0.044037 0.615112 0.0025 
174 1 0.0666057 0.11951 0.00283416 0 0 0 -0.198104 0.10183 0.00251467 -1.577 5.84335 0.263435 0.269129 -2.74012 -7.00623 0.0025 
175 1 0.109783 0.0827852 0.00293691 0 0 0 -0.0723142 -0.129712 0.038418 6.85799 -1.81492 0.765577 -3.22293 -6.41491 -53.4639 0.0025 
176 1 0.107717 0.0478919 0.00297336 0 0 0 -0.0540076 0.543805 0.0394905 -2.9845 6.55633 0.678851 8.23904 8.28189 -10.2309 0.0025 
177 1 0.104765 0.111744 0.00305385 0 0 0 -0.0355744 -0.00871217 0.0363049 -0.810679 -2.8328 0.393783 -1.76228 2.77058 31.8925 0.0025 
178 1 0.0940137 0.0876783 0.00274458 0 0 0 -0.047653 -0.276778 0.00700613 -4.53214 -6.72308 0.0422822 -1.94423 0.897476 6.41762 0.0025 
179 1 0.100239 0.116248 0.00266367 0 0 0 0.00326208 -0.196824 0.00577823 -3.43439 -4.95688 0.185608 -3.87905 -1.19946 5.39912 0.0025 
180 1 0.0324436 0.0603789 0.00261241 0 0 0 0.0370827 0.0644554 -0.0238545 0.67446 9.45378 -0.704108 -3.86716 -0.291571 -11.8153 0.0025 
181 1 0.124309 0.0807605 0.00268272 0 0 0 0.0730264 -0.133434 -0.00263094 1.67389 4.17173 -0.0576234 -0.157783 0.00112511 -4.45259 0.0025 
182 1 0.0426228 0.0587059 0.00267051 0 0 0 -0.0905172 0.0983987 -0.000462857 -0.197272 0.207754 0.00535211 -3.24442 -0.779179 18.2614 0.0025 
183 1 0.0228838 0.106071 0.00250573 0 0 0 0 0 0 0 0 0 0 0 0 0.0025 
184 1 0.0293578 0.0802825 0.00283389 0 0 0 0.167228 -0.0810902 0.0176667 4.75178 -1.232 0.432524 0.724575 -8.10663 24.0465 0.0025 
185 1 0.0903573 0.0792036 0.00291502 0 0 0 -0.021421 -0.0950446 0.0195659 6.9676 -5.85453 0.537409 -2.46992 -1.26328 -31.2365 0.0025 
186 1 0.0654052 0.0318796 0.00257608 0 0 0 0 0 0 0 0 0 0 0 0 0.0025 
187 1 0.104025 0.0323844 0.00289379 0 0 0 0.145375 -0.256547 0.014441 2.7769 -7.21402 0.607843 -3.02202 -1.25708 12.8388 0.0025 
188 1 0.113913 0.0870989 0.00277379 0 0 0 -0.0408772 0.208717 0.00074274 -0.792365 -0.397851 0.0588172 -2.10349 -0.320035 -15.633 0.0025 
189 1 0.125164 0.106085 0.00274645 0 0 0 0.150133 0.103279 -0.00759028 0 0 0 0.0441773 -0.0642189 1.74723e-12 0.0025 
190 1 0.0886598 0.0907695 0.00262915 0 0 0 0.0710477 0.154978 0.00409149 -3.46903 1.8774 0.167175 0.0874677 1.10859 -11.8374 0.0025 
191 1 0.0637944 0.0640064 0.00299873 0 0 0 0 0 0 0 0 0 0 0 0 0.0025 
192 1 0.0814738 0.124971 0.00270654 0 0 0 0.0746853 0.344546 0.0120592 -1.30691 -0.401713 0.0167221 1.12234 -3.49719 17.9704 0.0025 
193 1 0.0687827 0.113745 0.00290436 0 0 0 0 0 0 0 0 0 0 0 0 0.0025 
194 1 0.0611556 0.0717294 0.00273917 0 0 0 0.251173 -0.198856 -0.00951398 3.29429 -2.3506 -0.110813 0.820865 0.548621 10.4007 0.0025 
195 1 0.118974 0.0484518 0.00302829 0 0 0 0.0154469 0.207899 0.0169051 0.0841167 2.53312 0.146565 1.13579 2.78825 -34.2671 0.0025 
196 1 0.063098 0.123394 0.00258832 0 0 0 0.0466687 0.0159526 0.000621437 4.10767 1.41581 0.0566819 0.0271101 -0.193367 2.92662 0.0025 
197 1 0.0367214 0.0232084 0.00294612 0 0 0 0 0 0 0 0 0 0 0 0 0.0025 
198 1 0.100303 0.027076 0.00250064 0 0 0 0.138842 0.0949087 -0.024197 -5.64303 4.30626 -0.561876 -0.604834 2.41965 8.29074 0.0025 
199 1 0.0313806 0.0564604 0.00299349 0 0 0 -0.143395 0.171638 0.0242805 -3.49615 -4.5844 0.962131 -5.34846 -0.708646 -11.7048 0.0025 
200 1 0.0558458 0.0925497 0.00292089 0 0 0 0.0340089 0.211503 0.00796791 1.37829 3.37151 0.258543 1.33165 -0.0998031 -2.08141 0.0025 
201 1 0.112321 0.0484745 0.0027315 0 0 0 0.11544 -0.155397 -0.00442956 4.33586 1.71524 -0.155481 -1.37827 0.86246 -30.3701 0.0025 
202 1 0.0512805 0.0543183 0.00263848 0 0 0 0.0211306 -0.132535 -0.00690325 0.768362 -0.695797 -0.0758532 0.0569707 4.24775 14.6272 0.0025 
203 1 0.116567 0.103853 0.0028945 0 0 0 -0.0435771 -0.122516 -0.00158861 -1.24272 -3.88382 -0.0856909 0.295278 -1.07553 -24.1541 0.0025 
204 1 0.102231 0.0762841 0.00280339 0 0 0 0.0804463 0.231305 0.00492914 7.14948 2.56445 0.110136 0.385107 -0.347758 -8.9359 0.0025 
205 1 0.112412 0.0736954 0.00263588 0 0 0 0.252544 0.0140104 -0.0103807 2.62992 -3.88536 -0.192623 -0.369376 1.47789 -2.58159 0.0025 
206 1 0.0771883 0.0394219 0.0026435 0 0 0 0.0130597 0.179071 -0.0104695 -1.57777 0.542097 -0.138685 0.647438 -0.601895 -32.9134 0.0025 
207 1 0.0513997 0.0687119 0.00254844 0 0 0 0.110915 -0.177109 -0.0335981 10.156 -0.877544 -0.560622 2.82756 1.91884 -11.6849 0.0025 
208 1 0.120906 0.103043 0.00301056 0 0 0 0.042952 -0.123252 0.0105107 7.42977 -1.03804 0.130363 0.0743531 -1.30848 -10.752 0.0025 
209 1 0.0277656 0.0877359 0.00255293 0 0 0 0 0 0 0 0 0 0 0 0 0.0025 
210 1 0.0836284 0.0833181 0.00260489 0 0 0 -0.0870476 0.0432589 0.0017458 4.01263 4.71885 0.0563695 0.238871 -0.717357 24.1003 0.0025 
211 1 0.0360615 0.0305935 0.00302206 0 0 0 0.144593 0.165289 0.0145976 -0.783792 -2.18614 0.378799 1.0385 -0.846704 1.66627 0.0025 
212 1 0.0380377 0.0537411 0.00289272 0 0 0 -0.239606 -0.106584 0.0199057 -5.31681 -6.36055 0.474133 -9.44854 -0.298047 -30.2234 0.0025 
213 1 0.0906569 0.0484023 0.00268502 0 0 0 -0.120346 0.0362372 -0.00278609 -0.83074 0.669327 0.0707193 0.746004 1.44324 7.84768 0.0025 
214 1 0.0726499 0.108073 0.00259659 0 0 0 0.120446 0.114782 -0.0089366 4.48041 4.15183 -0.340837 -1.31319 1.0418 -4.44866 0.0025 
215 1 0.0801818 0.0357503 0.00300448 0 0 0 0.129946 -0.199041 0.0159805 1.87062 -2.35711 0.248018 -1.58308 0.886287 24.3411 0.0025 
216 1 0.0215018 0.1116 0.00250066 0 0 0 0 0 0 0 0 0 0 0 0 0.0025 
217 1 0.0640687 0.0476003 0.00243342 0 0 0 0.117638 -0.134448 -0.0326916 -7.22129 10.1629 -0.830604 -1.49006 2.70278 7.8471 0.0025 
218 1 0.0389533 0.099489 0.00300456 0 0 0 -0.233393 -0.184205 0.0209524 -5.45528 -4.44593 0.531193 -1.13663 2.67787 10.8833 0.0025 
219 1 0.118371 0.122908 0.00288447 0 0 0 0.159296 -0.0313939 0.0034071 5.91389 -1.11381 0.115991 -0.0515077 -0.511987 -2.29322 0.0025 
220 1 0.108963 0.108182 0.0028266 0 0 0 -0.142573 0.278 0.0090496 2.8569 1.78392 0.194921 4.10588 -0.550161 -17.0173 0.0025 
221 1 0.054482 0.0785387 0.00297457 0 0 0 -0.268249 0.0571008 0.0124942 -2.2113 -1.58754 0.00667653 -4.70433 2.4283 -57.9015 0.0025 
222 1 0.0518975 0.11802 0.00288909 0 0 0 -0.0737435 0.0395634 0.00559697 -3.26989 1.7543 0.256015 -0.00155059 -0.00289019 -4.60837e-14 0.0025 
223 1 0.0520186 0.0369315 0.00257364 0 0 0 -0.296807 -0.0782624 -0.0121637 -1.65201 -0.976315 -0.148823 -2.84276 4.11636 10.7285 0.0025 
224 1 0.0878527 0.0544666 0.00254467 0 0 0 0.0359483 0.303292 -0.0180517 1.0409 3.25794 -0.0817323 -8.06049 -1.69553 -47.5514 0.0025 
225 1 0.0867705 0.0278231 0.00278775 0 0 0 -0.0964504 0.0970255 -0.0022823 -7.00379 5.63319 -0.155253 -0.178269 0.444671 -11.2097 0.0025 
226 1 0.0838492 0.0705862 0.00263247 0 0 0 -0.0933401 -0.0335067 -0.010406 0.247749 2.80388 -0.30832 -3.19468 0.24349 -38.156 0.0025 
227 1 0.0594726 0.0611367 0.00302366 0 0 0 0.0496628 0.21084 0.0170598 0.712219 1.43516 0.132829 -0.564479 -2.04133 25.7858 0.0025 
228 1 0.117102 0.0673189 0.00246996 0 0 0 0.120595 0.0937633 -0.0121039 -2.46745 -2.71767 -0.14426 0.284464 -0.278847 -4.52955 0.0025 
229 1 0.0466454 0.054832 0.00306519 0 0 0 0.05858 -0.14898 0.0455229 8.34199 0.732626 0.930399 -4.46749 -5.76228 -59.8195 0.0025 
230 1 0.0588487 0.0992177 0.00261549 0 0 0 0.043753 0.112634 -0.0258388 4.37224 -0.807311 -0.779157 5.15071 7.10393 26.1375 0.0025 
231 1 0.123004 0.0984358 0.00268885 0 0 0 0.188396 0.252494 -0.0110915 0 0 0 -4.61289 4.83629 29.3996 0.0025 