ITEM: TIMESTEP
500
ITEM: NUMBER OF ATOMS
415
ITEM: BOX BOUNDS pp pp pp
0.00275 0.143309
0.00275 0.143309
0 0.0055
ITEM: ATOMS id type x y z ix iy iz vx vy vz fx fy fz omegax omegay omegaz radius 
1 1 0.0380404 0.108757 0.00285536 0 0 0 -9.09535e-06 0.000541321 3.76058e-05 -0.00580564 0.34553 0.0240478 -9.95293e-09 -1.6723e-10 9.17096e-19 0.0025 
2 1 0.0196008 0.127281 0.00271246 0 0 0 0 0 0 0 0 0 0 0 0 0.0025 
3 1 0.0819429 0.0764256 0.00279238 0 0 0 -0.00946054 0.00184968 0.000313494 -1.38483 0.270755 0.04625 -1.19474e-06 -6.11072e-06 3.05959e-16 0.0025 
4 1 0.110629 0.0581599 0.00266083 0 0 0 0 0 0 0 0 0 0 0 0 0.0025 
5 1 0.0338834 0.0628881 0.00278844 0 0 0 0.00834319 0.0109505 0.000619668 1.00579 1.32012 0.0754133 -1.69962e-05 1.29494e-05 -4.05934e-16 0.0025 
6 1 0.0353018 0.0441514 0.00252876 0 0 0 0 0 0 0 0 0 0 0 0 0.0025 
7 1 0.0243532 0.023712 0.0025951 0 0 0 0 0 0 0 0 0 0 0 0 0.0025 
8 1 0.082997 0.047723 0.00286502 0 0 0 0 0 0 0 0 0 0 0 0 0.0025 
9 1 0.050097 0.0299625 0.00262529 0 0 0 0.00437118 -0.0165713 -0.00041394 0.0825258 -1.58938 -0.0716197 -0.00138796 -0.000731487 0.0147006 0.0025 
10 1 0.120191 0.0910939 0.00263632 0 0 0 0 0 0 0 0 0 0 0 0 0.0025 
11 1 0.0762981 0.0459245 0.0026273 0 0 0 0 0 0 0 0 0 0 0 0 0.0025 
12 1 0.00527854 0.0509342 0.00270611 0 0 0 0 0 0 0 0 0 0 0 0 0.0025 
13 1 0.0948777 0.131128 0.00277351 0 0 0 0 0 0 0 0 0 0 0 0 0.0025 
14 1 0.0762099 0.110923 0.00275284 0 0 0 0 0 0 0 0 0 0 0 0 0.0025 
15 1 0.105663 0.0793772 0.00265928 0 0 0 0 0 0 0 0 0 0 0 0 0.0025 
16 1 0.0413336 0.0777215 0.00281331 0 0 0 0 0 0 0 0 0 0 0 0 0.0025 
17 1 0.0760967 0.0360559 0.00252304 0 0 0 0 0 0 0 0 0 0 0 0 0.0025 
18 1 0.103086 0.0554671 0.00278275 0 0 0 0 0 0 0 0 0 0 0 0 0.0025 
19 1 0.0843919 0.0174566 0.00273979 0 0 0 0 0 0 0 0 0 0 0 0 0.0025 
20 1 0.0698771 0.0798788 0.00258144 0 0 0 -0.00147859 -0.000156049 -9.40929e-05 -0.567319 -0.059874 -0.0362115 -1.1737e-08 1.1121e-07 3.03262e-18 0.0025 
21 1 0.0663705 0.0370935 0.0029201 0 0 0 0 0 0 0 0 0 0 0 0 0.0025 
22 1 0.0991743 0.0980519 0.00253726 0 0 0 0 0 0 0 0 0 0 0 0 0.0025 
23 1 0.134741 0.0702447 0.00272485 0 0 0 0 0 0 0 0 0 0 0 0 0.0025 
24 1 0.124485 0.0165029 0.00254829 0 0 0 0 0 0 0 0 0 0 0 0 0.0025 
25 1 0.106773 0.0356544 0.00250764 0 0 0 0 0 0 0 0 0 0 0 0 0.0025 
26 1 0.0437798 0.00574017 0.00297806 0 0 0 0 0 0 0 0 0 0 0 0 0.0025 
27 1 0.0423118 0.0723358 0.00295005 0 0 0 0 0 0 0 0 0 0 0 0 0.0025 
28 1 0.0721443 0.0921394 0.00271556 0 0 0 0 0 0 0 0 0 0 0 0 0.0025 
29 1 0.12333 0.00967067 0.0028586 0 0 0 0 0 0 0 0 0 0 0 0 0.0025 
30 1 0.13386 0.0122642 0.00272851 0 0 0 0.00444908 0.00582986 0.00027601 0.749756 0.987829 0.0469704 0.000677213 0.000622349 -0.0240138 0.0025 
31 1 0.0973628 0.0123218 0.00284515 0 0 0 0 0 0 0 0 0 0 0 0 0.0025 
32 1 0.097798 0.0178081 0.00289255 0 0 0 0 0 0 0 0 0 0 0 0 0.0025 
33 1 0.102753 0.0859091 0.00285024 0 0 0 0 0 0 0 0 0 0 0 0 0.0025 
34 1 0.0492552 0.105462 0.00289709 0 0 0 0 0 0 0 0 0 0 0 0 0.0025 
35 1 0.0635335 0.00521262 0.00253515 0 0 0 0 0 0 0 0 0 0 0 0 0.0025 
36 1 0.139011 0.0101389 0.00277236 0 0 0 0 0 0 0 0 0 0 0 0 0.0025 
37 1 0.0264876 0.0528495 0.00280216 0 0 0 0 0 0 0 0 0 0 0 0 0.0025 
38 1 0.0334873 0.0488098 0.00259517 0 0 0 0 0 0 0 0 0 0 0 0 0.0025 
39 1 0.0465361 0.0881084 0.00273417 0 0 0 0 0 0 0 0 0 0 0 0 0.0025 
40 1 0.0935277 0.0725192 0.00250782 0 0 0 0 0 0 0 0 0 0 0 0 0.0025 
41 1 0.0300188 0.0862936 0.00271681 0 0 0 0 0 0 0 0 0 0 0 0 0.0025 
42 1 0.0257136 0.117103 0.00252854 0 0 0 0 0 0 0 0 0 0 0 0 0.0025 
43 1 0.0409441 0.137007 0.0025763 0 0 0 0 0 0 0 0 0 0 0 0 0.0025 
44 1 0.100907 0.116928 0.0029016 0 0 0 0 0 0 0 0 0 0 0 0 0.0025 
45 1 0.02715 0.0812089 0.00280611 0 0 0 0 0 0 0 0 0 0 0 0 0.0025 
46 1 0.0200409 0.0754967 0.00269945 0 0 0 0 0 0 0 0 0 0 0 0 0.0025 
47 1 0.00694875 0.0103727 0.00255125 0 0 0 0 0 0 0 0 0 0 0 0 0.0025 
48 1 0.106276 0.12233 0.00256386 0 0 0 0 0 0 0 0 0 0 0 0 0.0025 
49 1 0.0509559 0.0156168 0.00284293 0 0 0 0 0 0 0 0 0 0 0 0 0.0025 
50 1 0.0622734 0.051921 0.00267835 0 0 0 0 0 0 0 0 0 0 0 0 0.0025 
51 1 0.0376097 0.0376538 0.00287295 0 0 0 0 0 0 0 0 0 0 0 0 0.0025 
52 1 0.083922 0.131312 0.00262597 0 0 0 0 0 0 0 0 0 0 0 0 0.0025 
53 1 0.102617 0.0456825 0.00295043 0 0 0 0 0 0 0 0 0 0 0 0 0.0025 
54 1 0.0127465 0.0446872 0.00291759 0 0 0 0 0 0 0 0 0 0 0 0 0.0025 
55 1 0.0101561 0.0815014 0.00265769 0 0 0 0 0 0 0 0 0 0 0 0 0.0025 
56 1 0.0626352 0.0885684 0.0027676 0 0 0 0 0 0 0 0 0 0 0 0 0.0025 
57 1 0.0381237 0.103797 0.00251014 0 0 0 9.09535e-06 -0.000541321 -3.76058e-05 0.00580564 -0.34553 -0.0240478 -9.95293e-09 -1.6723e-10 9.17096e-19 0.0025 
58 1 0.118521 0.0286022 0.00274553 0 0 0 -0.00405785 0.0187988 0.000690287 -0.405848 1.88017 0.0698267 -3.92134e-05 -8.46451e-06 -1.51869e-15 0.0025 
59 1 0.0541495 0.136489 0.0025099 0 0 0 0 0 0 0 0 0 0 0 0 0.0025 
60 1 0.109746 0.113264 0.00252848 0 0 0 0 0 0 0 0 0 0 0 0 0.0025 
61 1 0.0646503 0.0819948 0.00262511 0 0 0 0 0 0 0 0 0 0 0 0 0.0025 
62 1 0.0847656 0.11334 0.00296446 0 0 0 0 0 0 0 0 0 0 0 0 0.0025 
63 1 0.135533 0.0281362 0.00268398 0 0 0 0 0 0 0 0 0 0 0 0 0.0025 
64 1 0.0557946 0.0424878 0.00274139 0 0 0 -0.0119984 -0.00123828 0.0010437 -0.710228 -0.412041 0.100724 -0.00301291 -0.000810597 -0.0644293 0.0025 
65 1 0.0277863 0.0936201 0.0029846 0 0 0 0 0 0 0 0 0 0 0 0 0.0025 
66 1 0.136486 0.0217215 0.00253042 0 0 0 0 0 0 0 0 0 0 0 0 0.0025 
67 1 0.0179536 0.13393 0.00296642 0 0 0 0 0 0 0 0 0 0 0 0 0.0025 
68 1 0.0700736 0.0108199 0.00286251 0 0 0 -0.00228309 0.00940111 -0.000228573 -0.492269 0.663257 -0.018212 0.000116828 -0.000437618 -0.0190487 0.0025 
69 1 0.0828835 0.107277 0.00274051 0 0 0 0 0 0 0 0 0 0 0 0 0.0025 
70 1 0.0401599 0.0292652 0.00267022 0 0 0 0 0 0 0 0 0 0 0 0 0.0025 
71 1 0.06591 0.0293405 0.00269232 0 0 0 0 0 0 0 0 0 0 0 0 0.0025 
72 1 0.0535497 0.0360481 0.00290163 0 0 0 0 0 0 0 0 0 0 0 0 0.0025 
73 1 0.0806576 0.0847461 0.00251713 0 0 0 0 0 0 0 0 0 0 0 0 0.0025 
74 1 0.106426 0.135761 0.0025205 0 0 0 -0.00309252 -0.0234546 -0.00208214 -0.272701 -2.06824 -0.185969 -0.000168808 2.22576e-05 -1.83719e-15 0.0025 
75 1 0.131653 0.0351946 0.00260287 0 0 0 0 0 0 0 0 0 0 0 0 0.0025 
76 1 0.120394 0.138764 0.00292215 0 0 0 0 0 0 0 0 0 0 0 0 0.0025 
77 1 0.135091 0.051528 0.00275027 0 0 0 0 0 0 0 0 0 0 0 0 0.0025 
78 1 0.0816451 0.0966808 0.0028754 0 0 0 0 0 0 0 0 0 0 0 0 0.0025 
79 1 0.0523762 0.0753995 0.00290223 0 0 0 0.0104474 -0.0172052 -0.000139931 1.01902 -1.67817 -0.0138081 -7.45347e-06 -4.5259e-06 3.40843e-15 0.0025 
80 1 0.0765964 0.140378 0.00250855 0 0 0 0 0 0 0 0 0 0 0 0 0.0025 
81 1 0.0357666 0.12514 0.00273842 0 0 0 -2.59056e-07 2.48209e-08 2.42082e-09 -0.00718522 0.000688438 6.71463e-05 -2.09783e-18 -2.1895e-17 1.18439e-25 0.0025 
82 1 0.0106864 0.139834 0.00250011 0 0 0 0 0 0 0 0 0 0 0 0 0.0025 
83 1 0.0104433 0.129364 0.00255134 0 0 0 0 0 0 0 0 0 0 0 0 0.0025 
84 1 0.0640838 0.118684 0.00251047 0 0 0 0 0 0 0 0 0 0 0 0 0.0025 
85 1 0.110753 0.0411098 0.00274416 0 0 0 -0.00411284 -0.0192003 -0.000694397 -0.406491 -1.89766 -0.0694222 -4.07761e-05 8.73453e-06 3.85365e-15 0.0025 
86 1 0.13041 0.0988378 0.00263521 0 0 0 -0.00494131 -0.00211624 -0.000395214 -0.9884 -0.424443 -0.079347 0.000772398 -0.000787696 -0.00542872 0.0025 
87 1 0.125996 0.0618441 0.00281212 0 0 0 -0.015849 -0.012712 0.0011779 -1.53323 -1.22976 0.115292 4.68987e-05 -5.84721e-05 -6.28697e-16 0.0025 
88 1 0.054688 0.0515613 0.00264125 0 0 0 0 0 0 0 0 0 0 0 0 0.0025 
89 1 0.0738911 0.0739077 0.00265607 0 0 0 0 0 0 0 0 0 0 0 0 0.0025 
90 1 0.094325 0.119069 0.00260423 0 0 0 0 0 0 0 0 0 0 0 0 0.0025 
91 1 0.127207 0.0854323 0.00280835 0 0 0 -0.00244635 -3.29662e-05 0.000134033 -0.729313 -0.00982798 0.0401138 4.51561e-09 -3.35094e-07 3.10684e-17 0.0025 
92 1 0.0357763 0.00704428 0.00262534 0 0 0 0 0 0 0 0 0 0 0 0 0.0025 
93 1 0.0201312 0.045465 0.00290465 0 0 0 0 0 0 0 0 0 0 0 0 0.0025 
94 1 0.0823207 0.0325204 0.00271404 0 0 0 0.00830446 0.00787228 0.000117343 1.10923 1.0515 0.0158085 -2.08371e-06 2.1981e-06 3.82267e-16 0.0025 
95 1 0.0428452 0.0419686 0.00254171 0 0 0 0 0 0 0 0 0 0 0 0 0.0025 
96 1 0.0692478 0.0436664 0.00254717 0 0 0 -0.000139685 0.000235275 -4.79814e-06 -0.126037 0.212288 -0.00433493 3.95304e-10 2.34696e-10 1.53867e-20 0.0025 
97 1 0.00757806 0.090959 0.0028636 0 0 0 -0.00801593 0.0204045 0.000412218 -0.743964 1.89375 0.0387271 -2.73966e-05 -1.07628e-05 -7.53596e-16 0.0025 
98 1 0.0916756 0.0078475 0.00285596 0 0 0 0 0 0 0 0 0 0 0 0 0.0025 
99 1 0.0363911 0.0760659 0.00281023 0 0 0 0.00176906 0.00265609 2.54488e-05 0.461435 0.692806 0.00666747 -7.85329e-08 5.23058e-08 2.19195e-18 0.0025 
100 1 0.089815 0.0816518 0.00259704 0 0 0 0 0 0 0 0 0 0 0 0 0.0025 
101 1 0.014613 0.0714072 0.00275345 0 0 0 0 0 0 0 0 0 0 0 0 0.0025 
102 1 0.120028 0.0338146 0.00255938 0 0 0 0 0 0 0 0 0 0 0 0 0.0025 
103 1 0.0468499 0.0206011 0.00272255 0 0 0 0 0 0 0 0 0 0 0 0 0.0025 
104 1 0.0512126 0.112245 0.00288724 0 0 0 0 0 0 0 0 0 0 0 0 0.0025 
105 1 0.115401 0.137334 0.00273692 0 0 0 0 0 0 0 0 0 0 0 0 0.0025 
106 1 0.00934786 0.086454 0.00277149 0 0 0 0.00801593 -0.0204045 -0.000412218 0.743964 -1.89375 -0.0387271 -2.73966e-05 -1.07628e-05 -7.53596e-16 0.0025 
107 1 0.1372 0.0777883 0.00275786 0 0 0 0 0 0 0 0 0 0 0 0 0.0025 
108 1 0.0772945 0.0659457 0.00250204 0 0 0 0 0 0 0 0 0 0 0 0 0.0025 
109 1 0.0968201 0.0274257 0.0028981 0 0 0 0 0 0 0 0 0 0 0 0 0.0025 
110 1 0.0694675 0.068223 0.00256926 0 0 0 0.00340358 0.01045 -0.000418799 0.462383 1.42746 -0.0575242 -0.000586903 -0.000177583 -0.00915928 0.0025 
111 1 0.0223216 0.0341747 0.0029052 0 0 0 0 0 0 0 0 0 0 0 0 0.0025 
112 1 0.0883362 0.105512 0.00280114 0 0 0 0 0 0 0 0 0 0 0 0 0.0025 
113 1 0.0911015 0.0428001 0.00295487 0 0 0 -0.0214996 0.00832945 0.00108888 -1.93417 0.749344 0.0991961 -3.05511e-05 -7.88571e-05 1.66948e-16 0.0025 
114 1 0.0974114 0.126228 0.00267627 0 0 0 0 0 0 0 0 0 0 0 0 0.0025 
115 1 0.0212425 0.0292737 0.00273224 0 0 0 0 0 0 0 0 0 0 0 0 0.0025 
116 1 0.0827457 0.040522 0.00265502 0 0 0 0 0 0 0 0 0 0 0 0 0.0025 
117 1 0.0129981 0.0570222 0.00250531 0 0 0 0 0 0 0 0 0 0 0 0 0.0025 
118 1 0.0352988 0.133453 0.00251094 0 0 0 0 0 0 0 0 0 0 0 0 0.0025 
119 1 0.0944347 0.136297 0.00253731 0 0 0 0 0 0 0 0 0 0 0 0 0.0025 
120 1 0.0690291 0.0220812 0.00263767 0 0 0 0 0 0 0 0 0 0 0 0 0.0025 
121 1 0.00657374 0.0327191 0.00257945 0 0 0 0 0 0 0 0 0 0 0 0 0.0025 
122 1 0.117013 0.0963546 0.00279915 0 0 0 0 0 0 0 0 0 0 0 0 0.0025 
123 1 0.118769 0.10317 0.00252902 0 0 0 0 0 0 0 0 0 0 0 0 0.0025 
124 1 0.119015 0.0160599 0.00275193 0 0 0 0 0 0 0 0 0 0 0 0 0.0025 
125 1 0.0552491 0.0644241 0.00281268 0 0 0 0 0 0 0 0 0 0 0 0 0.0025 
126 1 0.049522 0.0922147 0.00272871 0 0 0 0 0 0 0 0 0 0 0 0 0.0025 
127 1 0.0706665 0.133035 0.00288769 0 0 0 0 0 0 0 0 0 0 0 0 0.0025 
128 1 0.111157 0.0661215 0.00259245 0 0 0 0 0 0 0 0 0 0 0 0 0.0025 
129 1 0.122891 0.0805734 0.00284531 0 0 0 0 0 0 0 0 0 0 0 0 0.0025 
130 1 0.0104288 0.0279857 0.00269319 0 0 0 -0.000581682 -8.8237e-05 -2.89534e-05 -0.356726 -0.0541128 -0.0177898 -1.29505e-09 8.53731e-09 2.685e-19 0.0025 
131 1 0.0388742 0.0656533 0.00269823 0 0 0 0 0 0 0 0 0 0 0 0 0.0025 
132 1 0.0216895 0.0933187 0.00276503 0 0 0 0 0 0 0 0 0 0 0 0 0.0025 
133 1 0.0624775 0.108883 0.00278905 0 0 0 0 0 0 0 0 0 0 0 0 0.0025 
134 1 0.0611601 0.0340575 0.00276656 0 0 0 0 0 0 0 0 0 0 0 0 0.0025 
135 1 0.0154344 0.100737 0.00269815 0 0 0 0 0 0 0 0 0 0 0 0 0.0025 
136 1 0.122973 0.0467444 0.00279614 0 0 0 0 0 0 0 0 0 0 0 0 0.0025 
137 1 0.04804 0.0631859 0.00252703 0 0 0 0 0 0 0 0 0 0 0 0 0.0025 
138 1 0.0310493 0.116978 0.0028035 0 0 0 0 0 0 0 0 0 0 0 0 0.0025 
139 1 0.0853028 0.00634214 0.00286127 0 0 0 0 0 0 0 0 0 0 0 0 0.0025 
140 1 0.050762 0.128954 0.00256926 0 0 0 0 0 0 0 0 0 0 0 0 0.0025 
141 1 0.0296469 0.0208773 0.00288033 0 0 0 0 0 0 0 0 0 0 0 0 0.0025 
142 1 0.0915617 0.0605434 0.00269531 0 0 0 0 0 0 0 0 0 0 0 0 0.0025 
143 1 0.0549992 0.0805479 0.00257915 0 0 0 0 0 0 0 0 0 0 0 0 0.0025 
144 1 0.0153381 0.0287304 0.00293804 0 0 0 0.000581682 8.8237e-05 2.89534e-05 0.356726 0.0541128 0.0177898 -1.29505e-09 8.53731e-09 2.685e-19 0.0025 
145 1 0.140127 0.0651683 0.00270709 0 0 0 0 0 0 0 0 0 0 0 0 0.0025 
146 1 0.10115 0.135076 0.00286259 0 0 0 0 0 0 0 0 0 0 0 0 0.0025 
147 1 0.0677962 0.109326 0.00290006 0 0 0 -0.000737757 -0.0235633 2.47846e-05 -0.0656372 -2.0964 0.00223319 1.98524e-06 -6.21569e-08 -4.90976e-15 0.0025 
148 1 0.0598611 0.129263 0.00265878 0 0 0 2.48348e-05 8.79743e-05 -1.33514e-06 0.0388188 0.137511 -0.00208849 2.47208e-11 -6.97858e-12 -4.80537e-21 0.0025 
149 1 0.087213 0.0639226 0.00297286 0 0 0 0 0 0 0 0 0 0 0 0 0.0025 
150 1 0.0335161 0.111584 0.00262683 0 0 0 0 0 0 0 0 0 0 0 0 0.0025 
151 1 0.058506 0.124463 0.0027317 0 0 0 -2.48348e-05 -8.79743e-05 1.33514e-06 -0.0388188 -0.137511 0.00208849 2.47208e-11 -6.97858e-12 -4.80537e-21 0.0025 
152 1 0.111767 0.0458475 0.00291746 0 0 0 0.00411284 0.0192003 0.000694397 0.406491 1.89766 0.0694222 -4.07761e-05 8.73453e-06 3.85365e-15 0.0025 
153 1 0.0546921 0.120558 0.00291665 0 0 0 0 0 0 0 0 0 0 0 0 0.0025 
154 1 0.106907 0.0513692 0.00281997 0 0 0 0 0 0 0 0 0 0 0 0 0.0025 
155 1 0.107056 0.140537 0.00294985 0 0 0 0.00309252 0.0234546 0.00208214 0.272701 2.06824 0.185969 -0.000168808 2.22576e-05 -1.83719e-15 0.0025 
156 1 0.0413971 0.0205846 0.00288368 0 0 0 0 0 0 0 0 0 0 0 0 0.0025 
157 1 0.0756147 0.0868623 0.00276896 0 0 0 0 0 0 0 0 0 0 0 0 0.0025 
158 1 0.109879 0.0915791 0.00272134 0 0 0 0 0 0 0 0 0 0 0 0 0.0025 
159 1 0.0908546 0.125216 0.00280598 0 0 0 0 0 0 0 0 0 0 0 0 0.0025 
160 1 0.137245 0.126052 0.00263652 0 0 0 0 0 0 0 0 0 0 0 0 0.0025 
161 1 0.0776124 0.0565216 0.00271826 0 0 0 -0.0221771 0.002437 -0.000867409 -2.03524 0.223649 -0.0805903 6.9726e-06 6.34518e-05 6.07635e-16 0.0025 
162 1 0.0105205 0.0222072 0.00297327 0 0 0 0 0 0 0 0 0 0 0 0 0.0025 
163 1 0.140279 0.0980691 0.00285702 0 0 0 0 0 0 0 0 0 0 0 0 0.0025 
164 1 0.0414532 0.118993 0.00274221 0 0 0 0 0 0 0 0 0 0 0 0 0.0025 
165 1 0.0479784 0.0109669 0.00283814 0 0 0 0 0 0 0 0 0 0 0 0 0.0025 
166 1 0.0882977 0.0217801 0.00257289 0 0 0 0 0 0 0 0 0 0 0 0 0.0025 
167 1 0.0210633 0.109292 0.00284697 0 0 0 0 0 0 0 0 0 0 0 0 0.0025 
168 1 0.0937806 0.105754 0.00257094 0 0 0 0 0 0 0 0 0 0 0 0 0.0025 
169 1 0.102053 0.0707829 0.00292627 0 0 0 -0.0155613 -0.0166262 0.000284925 -1.41275 -1.50943 0.026191 1.57773e-05 -1.47668e-05 -1.29099e-15 0.0025 
170 1 0.125234 0.104308 0.00299288 0 0 0 0 0 0 0 0 0 0 0 0 0.0025 
171 1 0.0810221 0.0095121 0.00292877 0 0 0 0.00582373 0.00130621 0.000478323 1.0936 0.245284 0.0903735 -1.01033e-06 4.50457e-06 8.57884e-18 0.0025 
172 1 0.0680466 0.0966724 0.00285539 0 0 0 0 0 0 0 0 0 0 0 0 0.0025 
173 1 0.00721958 0.06429 0.00260097 0 0 0 0 0 0 0 0 0 0 0 0 0.0025 
174 1 0.0649712 0.133688 0.00283409 0 0 0 0 0 0 0 0 0 0 0 0 0.0025 
175 1 0.121838 0.0855328 0.00288216 0 0 0 0 0 0 0 0 0 0 0 0 0.0025 
176 1 0.118473 0.0390756 0.00291364 0 0 0 0 0 0 0 0 0 0 0 0 0.0025 
177 1 0.114531 0.123301 0.00298241 0 0 0 0 0 0 0 0 0 0 0 0 0.0025 
178 1 0.100437 0.0925994 0.00273324 0 0 0 0 0 0 0 0 0 0 0 0 0.0025 
179 1 0.108535 0.129748 0.00265866 0 0 0 0 0 0 0 0 0 0 0 0 0.0025 
180 1 0.0199228 0.0572733 0.0026591 0 0 0 4.74378e-05 -0.00122296 -4.86758e-05 0.0201218 -0.518745 -0.0207035 -4.30535e-08 -1.67002e-09 -2.06287e-18 0.0025 
181 1 0.139785 0.0839518 0.00269052 0 0 0 0 0 0 0 0 0 0 0 0 0.0025 
182 1 0.0333036 0.0544968 0.00266401 0 0 0 0 0 0 0 0 0 0 0 0 0.0025 
183 1 0.00749865 0.116208 0.00250573 0 0 0 0 0 0 0 0 0 0 0 0 0.0025 
184 1 0.0157594 0.0826641 0.00281264 0 0 0 0 0 0 0 0 0 0 0 0 0.0025 
185 1 0.0962797 0.0808494 0.00288128 0 0 0 0 0 0 0 0 0 0 0 0 0.0025 
186 1 0.063066 0.0192544 0.00257608 0 0 0 0 0 0 0 0 0 0 0 0 0.0025 
187 1 0.113387 0.0202166 0.00288185 0 0 0 0 0 0 0 0 0 0 0 0 0.0025 
188 1 0.126622 0.0905672 0.00277332 0 0 0 0 0 0 0 0 0 0 0 0 0.0025 
189 1 0.140306 0.11564 0.00278276 0 0 0 0.00417695 0.0028734 -0.000194249 0.857227 0.589702 -0.04009 8.22577e-07 -1.19575e-06 6.84956e-17 0.0025 
190 1 0.0932698 0.0959696 0.00262554 0 0 0 0 0 0 0 0 0 0 0 0 0.0025 
191 1 0.060961 0.061238 0.00299873 0 0 0 0 0 0 0 0 0 0 0 0 0.0025 
192 1 0.0843992 0.140077 0.0026908 0 0 0 0 0 0 0 0 0 0 0 0 0.0025 
193 1 0.0674797 0.126236 0.00290436 0 0 0 0 0 0 0 0 0 0 0 0 0.0025 
194 1 0.0570644 0.0716916 0.00275265 0 0 0 0 0 0 0 0 0 0 0 0 0.0025 
195 1 0.132983 0.0402716 0.0029841 0 0 0 0 0 0 0 0 0 0 0 0 0.0025 
196 1 0.0600289 0.138839 0.00258809 0 0 0 0 0 0 0 0 0 0 0 0 0.0025 
197 1 0.0255817 0.0079229 0.00294612 0 0 0 0 0 0 0 0 0 0 0 0 0.0025 
198 1 0.107675 0.0127144 0.00257947 0 0 0 0.000635263 0.000156798 -5.36694e-05 0.368103 0.0908568 -0.0311611 4.52358e-09 -1.83271e-08 -3.04156e-20 0.0025 
199 1 0.0188853 0.050575 0.00296912 0 0 0 0 0 0 0 0 0 0 0 0 0.0025 
200 1 0.0505343 0.0982866 0.00291395 0 0 0 0 0 0 0 0 0 0 0 0 0.0025 
201 1 0.124127 0.041785 0.0027413 0 0 0 0 0 0 0 0 0 0 0 0 0.0025 
202 1 0.0444761 0.0492855 0.00267416 0 0 0 0.018643 -0.00472137 -0.00123943 1.03189 -0.727526 -0.0903855 0.00269629 -0.00223829 0.0490733 0.0025 
203 1 0.12996 0.113441 0.00289554 0 0 0 0 0 0 0 0 0 0 0 0 0.0025 
204 1 0.111241 0.0767848 0.0027954 0 0 0 0 0 0 0 0 0 0 0 0 0.0025 
205 1 0.123585 0.0736902 0.00266577 0 0 0 0 0 0 0 0 0 0 0 0 0.0025 
206 1 0.0787789 0.029163 0.00266356 0 0 0 -0.00830446 -0.00787228 -0.000117343 -1.10923 -1.0515 -0.0158085 -2.08371e-06 2.1981e-06 3.82267e-16 0.0025 
207 1 0.0452888 0.067468 0.00259765 0 0 0 0 0 0 0 0 0 0 0 0 0.0025 
208 1 0.136257 0.112855 0.00297214 0 0 0 -0.00417695 -0.0028734 0.000194249 -0.857227 -0.589702 0.04009 8.22577e-07 -1.19575e-06 6.84956e-17 0.0025 
209 1 0.0138783 0.0922479 0.00255293 0 0 0 0 0 0 0 0 0 0 0 0 0.0025 
210 1 0.0872813 0.0870126 0.00259966 0 0 0 0 0 0 0 0 0 0 0 0 0.0025 
211 1 0.0243194 0.0171057 0.00299565 0 0 0 0 0 0 0 0 0 0 0 0 0.0025 
212 1 0.028001 0.047079 0.00287384 0 0 0 -0.000127438 0.000266156 -2.36683e-06 -0.113882 0.238022 -0.00211008 -0.000240603 -9.61161e-05 0.00214632 0.0025 
213 1 0.0956074 0.0410544 0.00272382 0 0 0 0.0214996 -0.00832945 -0.00108888 1.93417 -0.749344 -0.0991961 -3.05511e-05 -7.88571e-05 1.66948e-16 0.0025 
214 1 0.0724135 0.118709 0.00260351 0 0 0 0 0 0 0 0 0 0 0 0 0.0025 
215 1 0.0821426 0.0246911 0.00298127 0 0 0 0 0 0 0 0 0 0 0 0 0.0025 
216 1 0.00569264 0.123434 0.00250066 0 0 0 0 0 0 0 0 0 0 0 0 0.0025 
217 1 0.0604462 0.0411862 0.00253683 0 0 0 0.0121488 -0.0158851 -0.00135782 0.82771 -1.75553 -0.138515 0.00234525 -0.00286063 0.0740886 0.0025 
218 1 0.0288158 0.107854 0.00298282 0 0 0 0 0 0 0 0 0 0 0 0 0.0025 
219 1 0.132111 0.138246 0.00288149 0 0 0 0 0 0 0 0 0 0 0 0 0.0025 
220 1 0.12051 0.118325 0.00281343 0 0 0 0 0 0 0 0 0 0 0 0 0.0025 
221 1 0.0498608 0.0795421 0.00293631 0 0 0 -0.0104474 0.0172052 0.000139931 -1.01902 1.67817 0.0138081 -7.45347e-06 -4.5259e-06 3.40843e-15 0.0025 
222 1 0.0454766 0.131789 0.00288542 0 0 0 0 0 0 0 0 0 0 0 0 0.0025 
223 1 0.0462899 0.0257861 0.00260036 0 0 0 0 0 0 0 0 0 0 0 0 0.0025 
224 1 0.0923303 0.0479734 0.00258699 0 0 0 0 0 0 0 0 0 0 0 0 0.0025 
225 1 0.0910404 0.0138856 0.00278882 0 0 0 0 0 0 0 0 0 0 0 0 0.0025 
226 1 0.0875479 0.0699017 0.00264736 0 0 0 0 0 0 0 0 0 0 0 0 0.0025 
227 1 0.055232 0.0569979 0.00299299 0 0 0 0 0 0 0 0 0 0 0 0 0.0025 
228 1 0.12977 0.0648711 0.00252837 0 0 0 0.015849 0.012712 -0.0011779 1.53323 1.22976 -0.115292 4.68987e-05 -5.84721e-05 -6.28697e-16 0.0025 
229 1 0.0396586 0.04953 0.0029554 0 0 0 -0.0248448 0.00125099 0.00143145 -2.14745 0.106399 0.125279 -0.000318534 0.000122894 -0.00558526 0.0025 
230 1 0.0547833 0.106917 0.00264358 0 0 0 0 0 0 0 0 0 0 0 0 0.0025 
231 1 0.137445 0.104961 0.00274341 0 0 0 0.00336894 0.00559037 -0.000337225 0.609915 1.01024 -0.0611727 -0.000519283 0.00053548 0.00367854 0.0025 
232 1 0.0263205 0.138455 0.00251352 0 0 0 0.0132185 0.00233292 -0.000711037 1.61482 0.284998 -0.0876786 4.10298e-06 -2.32478e-05 1.65915e-16 0.0025 
233 1 0.114079 0.118048 0.00255222 0 0 0 0 0 0 0 0 0 0 0 0 0.0025 
234 1 0.130833 0.0245234 0.00272651 0 0 0 0 0 0 0 0 0 0 0 0 0.0025 
235 1 0.128146 0.130376 0.0027514 0 0 0 0 0 0 0 0 0 0 0 0 0.0025 
236 1 0.113005 0.0715995 0.00270168 0 0 0 0 0 0 0 0 0 0 0 0 0.0025 
237 1 0.124682 0.0993316 0.00266859 0 0 0 0 0 0 0 0 0 0 0 0 0.0025 
238 1 0.0961946 0.0559435 0.00256974 0 0 0 0 0 0 0 0 0 0 0 0 0.0025 
239 1 0.124418 0.0264879 0.00262821 0 0 0 -0.000136729 -0.00471942 4.61897e-05 -0.0291471 -1.00606 0.00989994 3.09003e-07 -8.95227e-09 -1.32217e-17 0.0025 
240 1 0.0994298 0.0335392 0.00290893 0 0 0 0 0 0 0 0 0 0 0 0 0.0025 
241 1 0.0306399 0.135326 0.00255073 0 0 0 -0.0038322 -0.00501623 -0.00020415 -0.701771 -0.918597 -0.0376208 -1.68871e-06 1.29011e-06 1.20278e-16 0.0025 
242 1 0.0352706 0.0822376 0.00285076 0 0 0 0 0 0 0 0 0 0 0 0 0.0025 
243 1 0.0297229 0.037767 0.00264688 0 0 0 -0.00129628 -0.0133725 -0.000745583 -0.158235 -1.63255 -0.0918763 -2.36374e-05 2.81302e-06 -9.27762e-06 0.0025 
244 1 0.0166083 0.00859231 0.00297234 0 0 0 0.0240273 0.000879303 0.00116003 2.10863 0.0771673 0.10312 -3.52423e-06 9.6301e-05 5.93603e-17 0.0025 
245 1 0.0673921 0.0585618 0.00299912 0 0 0 0 0 0 0 0 0 0 0 0 0.0025 
246 1 0.0401383 0.0878577 0.00284764 0 0 0 0 0 0 0 0 0 0 0 0 0.0025 
247 1 0.109589 0.00673484 0.0026222 0 0 0 0 0 0 0 0 0 0 0 0 0.0025 
248 1 0.100495 0.0779221 0.00272774 0 0 0 0 0 0 0 0 0 0 0 0 0.0025 
249 1 0.0279558 0.131078 0.00267619 0 0 0 0 0 0 0 0 0 0 0 0 0.0025 
250 1 0.00733514 0.0386238 0.00284408 0 0 0 0 0 0 0 0 0 0 0 0 0.0025 
251 1 0.0552247 0.0905612 0.00286656 0 0 0 -0.00422245 0.00667096 -0.000470399 -0.624404 0.60691 -0.054362 0.0005 -0.000437022 -0.0107009 0.0025 
252 1 0.00921553 0.0165114 0.00264251 0 0 0 0 0 0 0 0 0 0 0 0 0.0025 
253 1 0.0387288 0.0129323 0.00288641 0 0 0 0 0 0 0 0 0 0 0 0 0.0025 
254 1 0.0502064 0.0693081 0.00278442 0 0 0 0 0 0 0 0 0 0 0 0 0.0025 
255 1 0.079078 0.102217 0.00289612 0 0 0 0 0 0 0 0 0 0 0 0 0.0025 
256 1 0.0311449 0.0274751 0.00253256 0 0 0 0.00383075 -0.00148526 -0.000359342 0.872362 -0.338233 -0.0822476 -7.14162e-07 -1.84195e-06 -3.71099e-18 0.0025 
257 1 0.107474 0.021822 0.00262287 0 0 0 0 0 0 0 0 0 0 0 0 0.0025 
258 1 0.0486053 0.0345811 0.00271611 0 0 0 -0.00548815 0.0169914 0.00033048 -0.573449 1.77472 0.0348752 5.63449e-06 6.42274e-06 -0.000234483 0.0025 
259 1 0.10581 0.0269071 0.00286394 0 0 0 0 0 0 0 0 0 0 0 0 0.0025 
260 1 0.0976334 0.0629355 0.00285099 0 0 0 0 0 0 0 0 0 0 0 0 0.0025 
261 1 0.111757 0.0259116 0.00265372 0 0 0 0 0 0 0 0 0 0 0 0 0.0025 
262 1 0.00522272 0.0967391 0.0026745 0 0 0 0 0 0 0 0 0 0 0 0 0.0025 
263 1 0.070672 0.0861261 0.00257663 0 0 0 0 0 0 0 0 0 0 0 0 0.0025 
264 1 0.119544 0.0238649 0.00256961 0 0 0 0.00405785 -0.0187988 -0.000690287 0.405848 -1.88017 -0.0698267 -3.92134e-05 -8.46451e-06 -1.51869e-15 0.0025 
265 1 0.085828 0.118935 0.00266001 0 0 0 0 0 0 0 0 0 0 0 0 0.0025 
266 1 0.12705 0.123576 0.00263437 0 0 0 0 0 0 0 0 0 0 0 0 0.0025 
267 1 0.0762446 0.00844057 0.00253395 0 0 0 -0.00582373 -0.00130621 -0.000478323 -1.0936 -0.245284 -0.0903735 -1.01033e-06 4.50457e-06 8.57884e-18 0.0025 
268 1 0.0734689 0.027436 0.00254893 0 0 0 -0.00540287 0.010326 -0.000459129 -0.7137 1.36402 -0.061177 1.0829e-05 5.66606e-06 7.81659e-16 0.0025 
269 1 0.0197307 0.0622247 0.00285673 0 0 0 -4.74378e-05 0.00122296 4.86758e-05 -0.0201218 0.518745 0.0207035 -4.30535e-08 -1.67002e-09 -2.06287e-18 0.0025 
270 1 0.05995 0.0780475 0.00273645 0 0 0 0 0 0 0 0 0 0 0 0 0.0025 
271 1 0.128292 0.0491279 0.0027991 0 0 0 0 0 0 0 0 0 0 0 0 0.0025 
272 1 0.115217 0.128946 0.00266276 0 0 0 0 0 0 0 0 0 0 0 0 0.0025 
273 1 0.0560241 0.0175483 0.00254971 0 0 0 0 0 0 0 0 0 0 0 0 0.0025 
274 1 0.0344766 0.0908853 0.00297466 0 0 0 0 0 0 0 0 0 0 0 0 0.0025 
275 1 0.0125914 0.108824 0.00260534 0 0 0 0 0 0 0 0 0 0 0 0 0.0025 
276 1 0.0757293 0.0231159 0.00274269 0 0 0 0.00540287 -0.010326 0.000459129 0.7137 -1.36402 0.061177 1.0829e-05 5.66606e-06 7.81659e-16 0.0025 
277 1 0.025995 0.0667994 0.00293885 0 0 0 0 0 0 0 0 0 0 0 0 0.0025 
278 1 0.0222182 0.122539 0.0025193 0 0 0 0 0 0 0 0 0 0 0 0 0.0025 
279 1 0.138997 0.0559021 0.00286244 0 0 0 0 0 0 0 0 0 0 0 0 0.0025 
280 1 0.132141 0.0854988 0.00253691 0 0 0 0.00244635 3.29662e-05 -0.000134033 0.729313 0.00982798 -0.0401138 4.51561e-09 -3.35094e-07 3.10684e-17 0.0025 
281 1 0.0683565 0.103128 0.00265337 0 0 0 0 0 0 0 0 0 0 0 0 0.0025 
282 1 0.1062 0.105562 0.00277131 0 0 0 0 0 0 0 0 0 0 0 0 0.0025 
283 1 0.114315 0.01039 0.00292831 0 0 0 0 0 0 0 0 0 0 0 0 0.0025 
284 1 0.020167 0.0861261 0.00258829 0 0 0 0 0 0 0 0 0 0 0 0 0.0025 
285 1 0.0332312 0.102485 0.00271691 0 0 0 0 0 0 0 0 0 0 0 0 0.0025 
286 1 0.123216 0.0536606 0.00275264 0 0 0 0 0 0 0 0 0 0 0 0 0.0025 
287 1 0.0936038 0.0862937 0.0027716 0 0 0 0 0 0 0 0 0 0 0 0 0.0025 
288 1 0.118198 0.0499977 0.00281423 0 0 0 0 0 0 0 0 0 0 0 0 0.0025 
289 1 0.0254761 0.0604261 0.00255827 0 0 0 0 0 0 0 0 0 0 0 0 0.0025 
290 1 0.0799124 0.0705288 0.00256094 0 0 0 0 0 0 0 0 0 0 0 0 0.0025 
291 1 0.0591735 0.099031 0.00297237 0 0 0 0 0 0 0 0 0 0 0 0 0.0025 
292 1 0.0457764 0.10956 0.00291897 0 0 0 0 0 0 0 0 0 0 0 0 0.0025 
293 1 0.105806 0.0962458 0.0027568 0 0 0 0 0 0 0 0 0 0 0 0 0.0025 
294 1 0.140033 0.0447541 0.00289597 0 0 0 0 0 0 0 0 0 0 0 0 0.0025 
295 1 0.123779 0.109937 0.00296406 0 0 0 0 0 0 0 0 0 0 0 0 0.0025 
296 1 0.1163 0.0647169 0.00289985 0 0 0 -0.00164607 -0.000863818 1.98571e-05 -0.56559 -0.296807 0.00684592 1.52128e-08 -2.89891e-08 -2.86478e-19 0.0025 
297 1 0.135493 0.0605518 0.00270292 0 0 0 0 0 0 0 0 0 0 0 0 0.0025 
298 1 0.0431075 0.0931601 0.002985 0 0 0 0 0 0 0 0 0 0 0 0 0.0025 
299 1 0.134368 0.120432 0.00252393 0 0 0 0 0 0 0 0 0 0 0 0 0.0025 
300 1 0.0762687 0.1329 0.00258586 0 0 0 -0.00574948 -0.00466245 5.84716e-05 -0.969111 -0.785885 0.00992324 4.8762e-07 -6.01306e-07 -1.01611e-16 0.0025 
301 1 0.0613435 0.0256026 0.00297781 0 0 0 0 0 0 0 0 0 0 0 0 0.0025 
302 1 0.0154855 0.116368 0.00280153 0 0 0 0 0 0 0 0 0 0 0 0 0.0025 
303 1 0.0679508 0.0635858 0.00275709 0 0 0 -0.00922914 -0.00755779 0.000744948 -1.51285 -0.9025 0.116649 0.00107726 0.000292114 0.0163596 0.0025 
304 1 0.00615999 0.106817 0.00284495 0 0 0 0 0 0 0 0 0 0 0 0 0.0025 
305 1 0.103343 0.0176905 0.00257365 0 0 0 0 0 0 0 0 0 0 0 0 0.0025 
306 1 0.0691609 0.00605289 0.00296812 0 0 0 -0.00327008 -0.0170143 0.000372906 -0.352754 -1.82569 0.0404316 -2.87474e-05 0.000183978 0.00809335 0.0025 
307 1 0.00777107 0.0563033 0.00269813 0 0 0 0 0 0 0 0 0 0 0 0 0.0025 
308 1 0.100535 0.0508924 0.00275836 0 0 0 0 0 0 0 0 0 0 0 0 0.0025 
309 1 0.096869 0.00537148 0.00250643 0 0 0 0 0 0 0 0 0 0 0 0 0.0025 
310 1 0.137673 0.0159175 0.00259512 0 0 0 0 0 0 0 0 0 0 0 0 0.0025 
311 1 0.0884409 0.0378456 0.0025462 0 0 0 0 0 0 0 0 0 0 0 0 0.0025 
312 1 0.0314782 0.0158423 0.00264718 0 0 0 0 0 0 0 0 0 0 0 0 0.0025 
313 1 0.0996596 0.103773 0.00267218 0 0 0 -0.00145711 0.000916099 -5.28505e-05 -0.520294 0.327115 -0.0189329 4.13911e-08 6.58348e-08 3.01844e-18 0.0025 
314 1 0.0723526 0.0614291 0.00250853 0 0 0 0.00582556 -0.00289224 -0.000326149 1.05047 -0.524964 -0.0591252 0.00166416 0.000469697 0.0255189 0.0025 
315 1 0.11231 0.051202 0.00285038 0 0 0 0 0 0 0 0 0 0 0 0 0.0025 
316 1 0.0896629 0.0557265 0.00289324 0 0 0 0 0 0 0 0 0 0 0 0 0.0025 
317 1 0.109937 0.0847134 0.00298992 0 0 0 0 0 0 0 0 0 0 0 0 0.0025 
318 1 0.0801581 0.124421 0.00283736 0 0 0 0 0 0 0 0 0 0 0 0 0.0025 
319 1 0.028591 0.124915 0.00276914 0 0 0 0 0 0 0 0 0 0 0 0 0.0025 
320 1 0.0249164 0.0718 0.00260985 0 0 0 -0.00106992 -0.000815547 -5.29161e-05 -0.43264 -0.329779 -0.0214589 -3.26977e-08 4.28964e-08 2.00095e-18 0.0025 
321 1 0.10385 0.101138 0.00282466 0 0 0 0.00145711 -0.000916099 5.28505e-05 0.520294 -0.327115 0.0189329 4.13911e-08 6.58348e-08 3.01844e-18 0.0025 
322 1 0.0710378 0.0489356 0.00283048 0 0 0 0 0 0 0 0 0 0 0 0 0.0025 
323 1 0.0927941 0.112654 0.00253426 0 0 0 0 0 0 0 0 0 0 0 0 0.0025 
324 1 0.118148 0.0598664 0.00296346 0 0 0 0 0 0 0 0 0 0 0 0 0.0025 
325 1 0.0518836 0.0453912 0.00270104 0 0 0 -0.00999273 0.00735135 -9.45021e-05 -1.32985 0.974861 -0.0122881 -0.00295627 -0.00452539 -0.0393553 0.0025 
326 1 0.0547536 0.0282955 0.00297836 0 0 0 0.00111697 -0.000420082 8.346e-05 0.490923 -0.185342 0.0367445 -0.00139359 -0.00073791 0.0149351 0.0025 
327 1 0.0562995 0.00770533 0.00286125 0 0 0 0 0 0 0 0 0 0 0 0 0.0025 
328 1 0.102755 0.112278 0.00263454 0 0 0 0 0 0 0 0 0 0 0 0 0.0025 
329 1 0.130406 0.0187443 0.00261724 0 0 0 0 0 0 0 0 0 0 0 0 0.0025 
330 1 0.0431422 0.113976 0.0029893 0 0 0 0 0 0 0 0 0 0 0 0 0.0025 
331 1 0.020815 0.0130241 0.0027513 0 0 0 0 0 0 0 0 0 0 0 0 0.0025 
332 1 0.00844144 0.0764512 0.00296728 0 0 0 0.000784162 0.00463941 5.79844e-05 0.167454 0.990725 0.0124494 -3.80689e-07 6.43448e-08 -8.48856e-19 0.0025 
333 1 0.059718 0.113432 0.002782 0 0 0 0 0 0 0 0 0 0 0 0 0.0025 
334 1 0.130871 0.00838255 0.0025427 0 0 0 -0.012973 0.000270893 -0.00036033 -1.94155 -0.131432 -0.0587702 0.000344604 0.000321734 -0.0121892 0.0025 
335 1 0.0117823 0.00841569 0.00273638 0 0 0 -0.0240273 -0.000879303 -0.00116003 -2.10863 -0.0771673 -0.10312 -3.52423e-06 9.6301e-05 5.93603e-17 0.0025 
336 1 0.119581 0.112897 0.00257718 0 0 0 0 0 0 0 0 0 0 0 0 0.0025 
337 1 0.0203687 0.102217 0.00257005 0 0 0 0 0 0 0 0 0 0 0 0 0.0025 
338 1 0.136796 0.0357801 0.00264549 0 0 0 0 0 0 0 0 0 0 0 0 0.0025 
339 1 0.0175289 0.0240219 0.00288681 0 0 0 0 0 0 0 0 0 0 0 0 0.0025 
340 1 0.10998 0.099449 0.0028207 0 0 0 0 0 0 0 0 0 0 0 0 0.0025 
341 1 0.126382 0.13945 0.00276857 0 0 0 0 0 0 0 0 0 0 0 0 0.0025 
342 1 0.0301922 0.0426083 0.00291934 0 0 0 0.00142372 0.0131063 0.00074795 0.272117 1.39453 0.0939864 -0.00026424 -9.33031e-05 0.00213704 0.0025 
343 1 0.0487262 0.0517207 0.00254419 0 0 0 0.00620184 0.00347038 -0.000192019 1.11556 0.621127 -0.0348936 0.00301482 -0.00236118 0.0546586 0.0025 
344 1 0.0747949 0.0803978 0.00289536 0 0 0 0.00147859 0.000156049 9.40929e-05 0.567319 0.059874 0.0362115 -1.1737e-08 1.1121e-07 3.03262e-18 0.0025 
345 1 0.133011 0.0915706 0.00262708 0 0 0 0 0 0 0 0 0 0 0 0 0.0025 
346 1 0.0487386 0.137919 0.00263116 0 0 0 0 0 0 0 0 0 0 0 0 0.0025 