# vtk DataFile Version 4.0
Generated by LIGGGHTS
ASCII
DATASET POLYDATA
POINTS 415 float
0.0635335 0.00521262 0.00253515 0.0357763 0.00704428 0.00262534 0.0437798 0.00574017 0.00297806 
0.0691609 0.00605289 0.00296812 0.0853028 0.00634214 0.00286127 0.096869 0.00537148 0.00250643 
0.109589 0.00673484 0.0026222 0.117752 0.00633366 0.00278475 0.134848 0.00554582 0.00258262 
0.0117823 0.00841569 0.00273638 0.0166083 0.00859231 0.00297234 0.0255817 0.0079229 0.00294612 
0.0562995 0.00770533 0.00286125 0.0762446 0.00844057 0.00253395 0.0810221 0.0095121 0.00292877 
0.0916756 0.0078475 0.00285596 0.12333 0.00967067 0.0028586 0.130871 0.00838255 0.0025427 
0.139011 0.0101389 0.00277236 0.00694875 0.0103727 0.00255125 0.0479784 0.0109669 0.00283814 
0.0648469 0.0124637 0.00271322 0.0700736 0.0108199 0.00286251 0.0973628 0.0123218 0.00284515 
0.102866 0.0115275 0.0029866 0.114315 0.01039 0.00292831 0.13386 0.0122642 0.00272851 
0.0137231 0.0132167 0.00292215 0.020815 0.0130241 0.0027513 0.0387288 0.0129323 0.00288641 
0.0729688 0.014757 0.00278743 0.0910404 0.0138856 0.00278882 0.107675 0.0127144 0.00257947 
0.00921553 0.0165114 0.00264251 0.0243194 0.0171057 0.00299565 0.0314782 0.0158423 0.00264718 
0.0509559 0.0156168 0.00284293 0.0843919 0.0174566 0.00273979 0.119015 0.0160599 0.00275194 
0.124485 0.0165029 0.00254829 0.137673 0.0159175 0.00259512 0.0560241 0.0175483 0.00254971 
0.063066 0.0192544 0.00257608 0.097798 0.0178081 0.00289255 0.103343 0.0176905 0.00257365 
0.130406 0.0187443 0.00261724 0.0105205 0.0222072 0.00297327 0.0296469 0.0208773 0.00288033 
0.0413971 0.0205846 0.00288368 0.0468499 0.0206011 0.00272255 0.0690291 0.0220812 0.00263767 
0.0882977 0.0217801 0.00257289 0.107474 0.021822 0.00262287 0.113387 0.0202166 0.00288185 
0.136486 0.0217215 0.00253042 0.0175289 0.0240219 0.00288681 0.0243532 0.023712 0.0025951 
0.0551045 0.0233023 0.00264027 0.0757293 0.0231159 0.00274269 0.0821426 0.0246911 0.00298127 
0.119544 0.0238649 0.00256961 0.130833 0.0245234 0.00272651 0.140735 0.0244565 0.00274951 
0.0369064 0.0249922 0.00299922 0.0462899 0.025786 0.00260036 0.0613435 0.0256026 0.00297781 
0.0912753 0.0272495 0.00255377 0.10581 0.0269071 0.00286394 0.111757 0.0259116 0.00265372 
0.124418 0.0264879 0.00262821 0.0104288 0.0279857 0.00269319 0.0153381 0.0287304 0.00293804 
0.0212425 0.0292737 0.00273224 0.0265693 0.0292492 0.00296398 0.0311449 0.0274751 0.00253256 
0.0401599 0.0292652 0.00267022 0.0547536 0.0282955 0.00297836 0.06591 0.0293405 0.00269232 
0.0734689 0.027436 0.00254893 0.0787789 0.029163 0.00266356 0.0968201 0.0274257 0.0028981 
0.118521 0.0286022 0.00274553 0.129303 0.0295913 0.00260941 0.135533 0.0281362 0.00268398 
0.050097 0.0299625 0.00262529 0.11276 0.031097 0.00285402 0.124561 0.0314068 0.00257981 
0.140392 0.0304111 0.00276767 0.00657374 0.0327191 0.00257945 0.0223216 0.0341747 0.0029052 
0.0435221 0.0332125 0.00255763 0.0486053 0.0345811 0.00271611 0.0611601 0.0340575 0.00276656 
0.0823207 0.0325204 0.00271404 0.0904561 0.0328033 0.00295701 0.0994298 0.0335392 0.00290893 
0.120028 0.0338146 0.00255938 0.015949 0.035479 0.00262182 0.0535497 0.0360481 0.00290163 
0.0663705 0.0370935 0.0029201 0.0760968 0.0360559 0.00252304 0.106773 0.0356544 0.00250764 
0.113288 0.0366671 0.0029883 0.131653 0.0351946 0.00260287 0.136796 0.0357801 0.00264549 
0.00733514 0.0386238 0.00284408 0.0297229 0.037767 0.00264688 0.0376097 0.0376538 0.00287295 
0.0717899 0.0393846 0.00263461 0.0884409 0.0378456 0.0025462 0.101253 0.0391002 0.00264373 
0.118473 0.0390756 0.00291364 0.0182659 0.0404384 0.00265728 0.0242791 0.0420694 0.00281122 
0.0428452 0.0419686 0.00254171 0.0489754 0.0409657 0.00297545 0.0604462 0.0411862 0.00253683 
0.0827457 0.040522 0.00265502 0.0956074 0.0410544 0.00272382 0.110753 0.0411098 0.00274416 
0.124127 0.041785 0.0027413 0.132983 0.0402716 0.0029841 0.0301922 0.0426083 0.00291934 
0.0353018 0.0441514 0.00252876 0.0557946 0.0424878 0.00274139 0.0638646 0.0446476 0.0026846 
0.0692478 0.0436664 0.00254717 0.0911015 0.0428001 0.00295487 0.0127465 0.0446872 0.00291759 
0.0201312 0.045465 0.00290465 0.028001 0.047079 0.00287384 0.0518836 0.0453912 0.00270104 
0.0762981 0.0459245 0.0026273 0.102617 0.0456825 0.00295043 0.111767 0.0458475 0.00291746 
0.122973 0.0467444 0.00279614 0.140033 0.0447541 0.00289597 0.0334873 0.0488098 0.00259517 
0.0396586 0.04953 0.0029554 0.0444761 0.0492855 0.00267416 0.0710378 0.0489356 0.00283048 
0.082997 0.047723 0.00286502 0.0923303 0.0479735 0.00258699 0.128292 0.0491279 0.0027991 
0.00527854 0.0509342 0.00270611 0.0188853 0.050575 0.00296912 0.0487262 0.0517207 0.00254419 
0.054688 0.0515613 0.00264125 0.0622734 0.051921 0.00267835 0.0762231 0.051168 0.00250256 
0.100535 0.0508924 0.00275836 0.106907 0.0513692 0.00281997 0.11231 0.051202 0.00285038 
0.118198 0.0499977 0.00281423 0.135091 0.051528 0.00275027 0.0264876 0.0528495 0.00280216 
0.0333036 0.0544968 0.00266401 0.123216 0.0536606 0.00275264 0.00777107 0.0563033 0.00269813 
0.0388652 0.0552248 0.00294003 0.055232 0.0569979 0.00299299 0.0776124 0.0565216 0.00271826 
0.0824197 0.0559934 0.00290859 0.0896629 0.0557266 0.00289324 0.0961946 0.0559435 0.00256974 
0.103086 0.0554671 0.00278275 0.138997 0.0559021 0.00286244 0.0129981 0.0570222 0.00250531 
0.0199228 0.0572733 0.0026591 0.0309349 0.0590182 0.00256737 0.0673921 0.0585618 0.00299912 
0.110629 0.0581599 0.00266083 0.128752 0.0573066 0.00250506 0.0254761 0.0604261 0.00255827 
0.060961 0.061238 0.00299873 0.0723526 0.0614291 0.00250853 0.0915617 0.0605434 0.00269531 
0.118148 0.0598664 0.00296346 0.125996 0.0618441 0.00281212 0.135493 0.0605518 0.00270292 
0.00721958 0.06429 0.00260097 0.0197307 0.0622247 0.00285673 0.0338834 0.0628881 0.00278844 
0.04804 0.0631859 0.00252703 0.0679508 0.0635858 0.00275709 0.087213 0.0639225 0.00297286 
0.0976334 0.0629355 0.00285099 0.106005 0.0638553 0.00272833 0.025995 0.0667994 0.00293885 
0.0388742 0.0656533 0.00269823 0.0552491 0.0644241 0.00281268 0.0772945 0.0659457 0.00250204 
0.091838 0.0667824 0.00273694 0.111157 0.0661215 0.00259245 0.1163 0.0647169 0.00289985 
0.12977 0.0648711 0.00252837 0.140127 0.0651683 0.00270709 0.0452888 0.067468 0.00259765 
0.0502064 0.0693081 0.00278442 0.0633448 0.067351 0.00268832 0.0694675 0.0682231 0.00256926 
0.120683 0.0670168 0.0028468 0.00762133 0.0715991 0.0029063 0.014613 0.0714072 0.00275345 
0.0570644 0.0716916 0.00275265 0.0799124 0.0705288 0.00256094 0.0875479 0.0699017 0.00264736 
0.102053 0.0707828 0.00292627 0.113005 0.0715995 0.00270168 0.134741 0.0702447 0.00272485 
0.0249164 0.0718 0.00260985 0.0336557 0.0719589 0.00277071 0.0423118 0.0723358 0.00295005 
0.0652018 0.0732469 0.00258945 0.0738911 0.0739077 0.00265607 0.0935277 0.0725192 0.00250782 
0.118634 0.072436 0.00284687 0.123585 0.0736902 0.00266577 0.131555 0.0742086 0.00255297 
0.00844144 0.0764512 0.00296728 0.0200409 0.0754967 0.00269945 0.0288557 0.0748028 0.00280526 
0.0363911 0.0760659 0.00281023 0.0523762 0.0753995 0.00290223 0.0819429 0.0764256 0.00279238 
0.0867391 0.0754879 0.0026322 0.105359 0.0743152 0.00286499 0.0413336 0.0777215 0.00281331 
0.05995 0.0780475 0.00273645 0.100495 0.0779221 0.00272774 0.111241 0.0767848 0.0027954 
0.1372 0.0777883 0.00275786 0.0101561 0.0815014 0.00265769 0.02715 0.0812089 0.00280611 
0.0498608 0.0795421 0.00293631 0.0549992 0.0805479 0.00257915 0.0698771 0.0798788 0.00258144 
0.0747949 0.0803978 0.00289536 0.089815 0.0816518 0.00259704 0.0962797 0.0808494 0.00288128 
0.105663 0.0793772 0.00265928 0.122891 0.0805734 0.00284531 0.0157594 0.0826641 0.00281264 
0.0352706 0.0822376 0.00285076 0.0646503 0.0819948 0.00262511 0.116017 0.0838095 0.00254386 
0.139785 0.0839518 0.00269052 0.00934786 0.086454 0.00277149 0.020167 0.0861261 0.00258829 
0.0300188 0.0862936 0.00271681 0.0536348 0.0859718 0.00298519 0.0706721 0.0861261 0.00257663 
0.0806576 0.0847461 0.00251713 0.0936038 0.0862937 0.0027716 0.102753 0.0859091 0.00285024 
0.109937 0.0847133 0.00298992 0.121838 0.0855328 0.00288216 0.127207 0.0854323 0.00280835 
0.132141 0.0854988 0.00253691 0.0401383 0.0878577 0.00284764 0.0465361 0.0881084 0.00273417 
0.0626352 0.0885684 0.0027676 0.0756147 0.0868623 0.00276896 0.0872813 0.0870126 0.00259966 
0.138355 0.088836 0.00273797 0.00757806 0.090959 0.0028636 0.0344766 0.0908853 0.00297466 
0.0552247 0.0905612 0.00286656 0.120191 0.0910939 0.00263632 0.126622 0.0905672 0.00277332 
0.0138783 0.0922479 0.00255293 0.0216895 0.0933187 0.00276503 0.0277863 0.0936201 0.0029846 
0.0431075 0.0931601 0.002985 0.049522 0.0922147 0.00272871 0.0588578 0.0938061 0.00289889 
0.0721443 0.0921394 0.00271556 0.0889709 0.0917879 0.00256839 0.100437 0.0925994 0.00273324 
0.109879 0.0915791 0.00272134 0.133011 0.0915706 0.00262708 0.0932698 0.0959696 0.00262554 
0.105806 0.0962458 0.0027568 0.117013 0.0963546 0.00279915 0.00522272 0.0967391 0.0026745 
0.0505343 0.0982866 0.00291395 0.0680466 0.0966724 0.00285539 0.0816451 0.0966808 0.0028754 
0.0991744 0.0980519 0.00253726 0.13041 0.0988378 0.00263521 0.140279 0.0980691 0.00285702 
0.0154344 0.100737 0.00269815 0.0419789 0.0995161 0.00296506 0.0591735 0.099031 0.00297237 
0.0729812 0.101231 0.00296232 0.0870479 0.0994068 0.00259991 0.10385 0.101138 0.00282466 
0.10998 0.0994489 0.0028207 0.124682 0.0993316 0.00266859 0.134919 0.100762 0.00299901 
0.00666148 0.101807 0.002628 0.0203687 0.102217 0.00257005 0.0332312 0.102485 0.00271691 
0.0381237 0.103797 0.00251014 0.0683565 0.103128 0.00265337 0.079078 0.102217 0.00289612 
0.0996596 0.103773 0.00267218 0.118769 0.10317 0.00252902 0.0492552 0.105462 0.00289709 
0.059592 0.104709 0.00264559 0.0883362 0.105512 0.00280114 0.0937806 0.105754 0.00257094 
0.1062 0.105562 0.00277131 0.125234 0.104308 0.00299288 0.137445 0.104961 0.00274341 
0.00615999 0.106817 0.00284495 0.0288158 0.107854 0.00298283 0.0380404 0.108757 0.00285536 
0.0547833 0.106917 0.00264358 0.0731906 0.106675 0.00269708 0.0828835 0.107277 0.00274051 
0.111209 0.107854 0.00267987 0.0125914 0.108824 0.00260534 0.0210633 0.109292 0.00284697 
0.0457764 0.10956 0.00291897 0.0624775 0.108883 0.00278905 0.0677962 0.109326 0.00290006 
0.0762099 0.110923 0.00275284 0.123779 0.109937 0.00296406 0.0335161 0.111584 0.00262683 
0.0512126 0.112245 0.00288724 0.059718 0.113432 0.002782 0.0847656 0.11334 0.00296446 
0.0927941 0.112654 0.00253426 0.102755 0.112278 0.00263454 0.109746 0.113264 0.00252848 
0.119581 0.112897 0.00257718 0.12996 0.113441 0.00289554 0.136257 0.112855 0.00297214 
0.0366693 0.115589 0.00251557 0.0431422 0.113976 0.0029893 0.0679476 0.11416 0.00289492 
0.140306 0.11564 0.00278276 0.00749865 0.116208 0.00250573 0.0154855 0.116368 0.00280153 
0.0257136 0.117103 0.00252854 0.0310493 0.116978 0.0028035 0.100907 0.116928 0.0029016 
0.114079 0.118048 0.00255222 0.12051 0.118325 0.00281343 0.125837 0.117748 0.00286929 
0.0414532 0.118993 0.00274221 0.0546921 0.120558 0.00291665 0.0640838 0.118684 0.00251047 
0.0724135 0.118709 0.00260351 0.085828 0.118935 0.00266001 0.094325 0.119069 0.00260423 
0.134368 0.120432 0.00252393 0.00569264 0.123434 0.00250066 0.0145909 0.122104 0.002674 
0.0222182 0.122539 0.0025193 0.106276 0.12233 0.00256386 0.114531 0.123301 0.00298241 
0.12705 0.123576 0.00263437 0.028591 0.124915 0.00276914 0.0357666 0.12514 0.00273842 
0.0407427 0.124664 0.00269192 0.058506 0.124463 0.0027317 0.0801581 0.124421 0.00283736 
0.0908546 0.125216 0.00280598 0.0196008 0.127281 0.00271246 0.0674797 0.126236 0.00290436 
0.0750485 0.128051 0.00259686 0.0852849 0.126328 0.002997 0.0974114 0.126228 0.00267627 
0.120067 0.127323 0.00265741 0.137245 0.126052 0.00263652 0.0104433 0.129364 0.00255134 
0.050762 0.128954 0.00256926 0.0598611 0.129263 0.00265878 0.108535 0.129748 0.00265866 
0.115217 0.128946 0.00266276 0.128146 0.130376 0.0027514 0.0279558 0.131078 0.00267619 
0.0454766 0.131789 0.00288542 0.0706665 0.133035 0.00288769 0.0762687 0.1329 0.00258586 
0.083922 0.131312 0.00262597 0.090161 0.132801 0.00255163 0.0948777 0.131128 0.00277351 
0.0179536 0.13393 0.00296642 0.0306399 0.135326 0.00255073 0.0352988 0.133453 0.00251094 
0.0649712 0.133688 0.00283409 0.10115 0.135076 0.00286259 0.106426 0.135761 0.0025205 
0.0215298 0.137609 0.00277362 0.0409441 0.137007 0.0025763 0.0487386 0.137919 0.00263116 
0.0541495 0.136489 0.0025099 0.0800763 0.135988 0.00254687 0.0944347 0.136297 0.00253731 
0.115401 0.137334 0.00273692 0.132111 0.138246 0.00288149 0.00568519 0.138647 0.00282114 
0.0106864 0.139834 0.00250011 0.0263205 0.138455 0.00251352 0.0336188 0.139225 0.00271043 
0.0600289 0.138839 0.00258809 0.0765964 0.140378 0.00250855 0.0843992 0.140077 0.0026908 
0.0893083 0.139048 0.00272161 0.107056 0.140537 0.00294985 0.120394 0.138764 0.00292215 
0.126382 0.13945 0.00276857 
VERTICES 415 830
1 0 
1 1 
1 2 
1 3 
1 4 
1 5 
1 6 
1 7 
1 8 
1 9 
1 10 
1 11 
1 12 
1 13 
1 14 
1 15 
1 16 
1 17 
1 18 
1 19 
1 20 
1 21 
1 22 
1 23 
1 24 
1 25 
1 26 
1 27 
1 28 
1 29 
1 30 
1 31 
1 32 
1 33 
1 34 
1 35 
1 36 
1 37 
1 38 
1 39 
1 40 
1 41 
1 42 
1 43 
1 44 
1 45 
1 46 
1 47 
1 48 
1 49 
1 50 
1 51 
1 52 
1 53 
1 54 
1 55 
1 56 
1 57 
1 58 
1 59 
1 60 
1 61 
1 62 
1 63 
1 64 
1 65 
1 66 
1 67 
1 68 
1 69 
1 70 
1 71 
1 72 
1 73 
1 74 
1 75 
1 76 
1 77 
1 78 
1 79 
1 80 
1 81 
1 82 
1 83 
1 84 
1 85 
1 86 
1 87 
1 88 
1 89 
1 90 
1 91 
1 92 
1 93 
1 94 
1 95 
1 96 
1 97 
1 98 
1 99 
1 100 
1 101 
1 102 
1 103 
1 104 
1 105 
1 106 
1 107 
1 108 
1 109 
1 110 
1 111 
1 112 
1 113 
1 114 
1 115 
1 116 
1 117 
1 118 
1 119 
1 120 
1 121 
1 122 
1 123 
1 124 
1 125 
1 126 
1 127 
1 128 
1 129 
1 130 
1 131 
1 132 
1 133 
1 134 
1 135 
1 136 
1 137 
1 138 
1 139 
1 140 
1 141 
1 142 
1 143 
1 144 
1 145 
1 146 
1 147 
1 148 
1 149 
1 150 
1 151 
1 152 
1 153 
1 154 
1 155 
1 156 
1 157 
1 158 
1 159 
1 160 
1 161 
1 162 
1 163 
1 164 
1 165 
1 166 
1 167 
1 168 
1 169 
1 170 
1 171 
1 172 
1 173 
1 174 
1 175 
1 176 
1 177 
1 178 
1 179 
1 180 
1 181 
1 182 
1 183 
1 184 
1 185 
1 186 
1 187 
1 188 
1 189 
1 190 
1 191 
1 192 
1 193 
1 194 
1 195 
1 196 
1 197 
1 198 
1 199 
1 200 
1 201 
1 202 
1 203 
1 204 
1 205 
1 206 
1 207 
1 208 
1 209 
1 210 
1 211 
1 212 
1 213 
1 214 
1 215 
1 216 
1 217 
1 218 
1 219 
1 220 
1 221 
1 222 
1 223 
1 224 
1 225 
1 226 
1 227 
1 228 
1 229 
1 230 
1 231 
1 232 
1 233 
1 234 
1 235 
1 236 
1 237 
1 238 
1 239 
1 240 
1 241 
1 242 
1 243 
1 244 
1 245 
1 246 
1 247 
1 248 
1 249 
1 250 
1 251 
1 252 
1 253 
1 254 
1 255 
1 256 
1 257 
1 258 
1 259 
1 260 
1 261 
1 262 
1 263 
1 264 
1 265 
1 266 
1 267 
1 268 
1 269 
1 270 
1 271 
1 272 
1 273 
1 274 
1 275 
1 276 
1 277 
1 278 
1 279 
1 280 
1 281 
1 282 
1 283 
1 284 
1 285 
1 286 
1 287 
1 288 
1 289 
1 290 
1 291 
1 292 
1 293 
1 294 
1 295 
1 296 
1 297 
1 298 
1 299 
1 300 
1 301 
1 302 
1 303 
1 304 
1 305 
1 306 
1 307 
1 308 
1 309 
1 310 
1 311 
1 312 
1 313 
1 314 
1 315 
1 316 
1 317 
1 318 
1 319 
1 320 
1 321 
1 322 
1 323 
1 324 
1 325 
1 326 
1 327 
1 328 
1 329 
1 330 
1 331 
1 332 
1 333 
1 334 
1 335 
1 336 
1 337 
1 338 
1 339 
1 340 
1 341 
1 342 
1 343 
1 344 
1 345 
1 346 
1 347 
1 348 
1 349 
1 350 
1 351 
1 352 
1 353 
1 354 
1 355 
1 356 
1 357 
1 358 
1 359 
1 360 
1 361 
1 362 
1 363 
1 364 
1 365 
1 366 
1 367 
1 368 
1 369 
1 370 
1 371 
1 372 
1 373 
1 374 
1 375 
1 376 
1 377 
1 378 
1 379 
1 380 
1 381 
1 382 
1 383 
1 384 
1 385 
1 386 
1 387 
1 388 
1 389 
1 390 
1 391 
1 392 
1 393 
1 394 
1 395 
1 396 
1 397 
1 398 
1 399 
1 400 
1 401 
1 402 
1 403 
1 404 
1 405 
1 406 
1 407 
1 408 
1 409 
1 410 
1 411 
1 412 
1 413 
1 414 

POINT_DATA 415
FIELD FieldData 7
id 1 415 int
35 92 26 306 139 309 247 412 396 
335 244 197 327 267 171 98 29 334 
36 47 165 395 68 31 373 283 30 
401 331 253 385 225 198 252 211 312 
49 19 124 24 310 273 186 32 305 
329 162 141 156 103 120 166 257 187 
66 339 7 391 276 215 264 234 376 
351 223 301 362 259 261 239 130 144 
115 387 256 70 326 71 268 206 109 
58 367 63 9 369 400 354 121 111 
403 258 134 94 363 240 102 399 72 
21 17 25 384 75 338 250 243 51 
382 311 358 176 353 356 95 392 217 
116 213 85 201 195 342 6 64 349 
96 113 54 93 212 325 11 53 152 
136 294 38 229 202 322 8 224 271 
12 199 343 88 50 410 308 154 315 
288 77 37 182 286 307 413 227 161 
365 316 238 18 279 117 180 411 245 
4 355 289 191 314 142 324 87 297 
173 269 5 137 303 149 260 378 277 
131 125 108 405 128 296 228 145 207 
254 393 110 372 360 101 194 290 226 
169 236 23 320 390 27 415 89 40 
366 205 350 332 46 404 99 79 3 
408 352 16 270 248 204 107 55 45 
221 143 20 344 100 185 15 129 184 
242 61 379 181 106 284 41 383 263 
73 287 33 317 175 91 280 246 39 
56 157 210 347 97 274 251 10 188 
209 132 65 298 126 388 28 386 178 
158 345 190 293 122 262 200 172 78 
22 86 163 135 377 291 370 368 321 
340 237 397 394 337 285 57 281 255 
313 123 34 406 112 168 282 170 231 
304 218 1 230 409 69 381 275 167 
292 133 147 14 295 150 104 333 62 
323 328 60 336 203 208 371 330 374 
189 183 302 42 138 44 233 220 357 
164 153 84 214 265 90 299 216 361 
278 48 177 266 319 81 407 151 318 
159 2 193 414 402 114 380 160 83 
140 148 179 272 235 249 222 127 300 
52 398 13 67 241 118 174 146 74 
389 43 346 59 348 119 105 219 375 
82 232 364 196 80 192 359 155 76 
341 
type 1 415 int
1 1 1 1 1 1 1 1 1 
1 1 1 1 1 1 1 1 1 
1 1 1 1 1 1 1 1 1 
1 1 1 1 1 1 1 1 1 
1 1 1 1 1 1 1 1 1 
1 1 1 1 1 1 1 1 1 
1 1 1 1 1 1 1 1 1 
1 1 1 1 1 1 1 1 1 
1 1 1 1 1 1 1 1 1 
1 1 1 1 1 1 1 1 1 
1 1 1 1 1 1 1 1 1 
1 1 1 1 1 1 1 1 1 
1 1 1 1 1 1 1 1 1 
1 1 1 1 1 1 1 1 1 
1 1 1 1 1 1 1 1 1 
1 1 1 1 1 1 1 1 1 
1 1 1 1 1 1 1 1 1 
1 1 1 1 1 1 1 1 1 
1 1 1 1 1 1 1 1 1 
1 1 1 1 1 1 1 1 1 
1 1 1 1 1 1 1 1 1 
1 1 1 1 1 1 1 1 1 
1 1 1 1 1 1 1 1 1 
1 1 1 1 1 1 1 1 1 
1 1 1 1 1 1 1 1 1 
1 1 1 1 1 1 1 1 1 
1 1 1 1 1 1 1 1 1 
1 1 1 1 1 1 1 1 1 
1 1 1 1 1 1 1 1 1 
1 1 1 1 1 1 1 1 1 
1 1 1 1 1 1 1 1 1 
1 1 1 1 1 1 1 1 1 
1 1 1 1 1 1 1 1 1 
1 1 1 1 1 1 1 1 1 
1 1 1 1 1 1 1 1 1 
1 1 1 1 1 1 1 1 1 
1 1 1 1 1 1 1 1 1 
1 1 1 1 1 1 1 1 1 
1 1 1 1 1 1 1 1 1 
1 1 1 1 1 1 1 1 1 
1 1 1 1 1 1 1 1 1 
1 1 1 1 1 1 1 1 1 
1 1 1 1 1 1 1 1 1 
1 1 1 1 1 1 1 1 1 
1 1 1 1 1 1 1 1 1 
1 1 1 1 1 1 1 1 1 
1 
i 3 415 int
0 0 0 0 0 0 0 0 0 
0 0 0 0 0 0 0 0 0 
0 0 0 0 0 0 0 0 0 
0 0 0 0 0 0 0 0 0 
0 0 0 0 0 0 0 0 0 
0 0 0 0 0 0 0 0 0 
0 0 0 0 0 0 0 0 0 
0 0 0 0 0 0 0 0 0 
0 0 0 0 0 0 0 0 0 
0 0 0 0 0 0 0 0 0 
0 0 0 0 0 0 0 0 0 
0 0 0 0 0 0 0 0 0 
0 0 0 0 0 0 0 0 0 
0 0 0 0 0 0 0 0 0 
0 0 0 0 0 0 0 0 0 
0 0 0 0 0 0 0 0 0 
0 0 0 0 0 0 0 0 0 
0 0 0 0 0 0 0 0 0 
0 0 0 0 0 0 0 0 0 
0 0 0 0 0 0 0 0 0 
0 0 0 0 0 0 0 0 0 
0 0 0 0 0 0 0 0 0 
0 0 0 0 0 0 0 0 0 
0 0 0 0 0 0 0 0 0 
0 0 0 0 0 0 0 0 0 
0 0 0 0 0 0 0 0 0 
0 0 0 0 0 0 0 0 0 
0 0 0 0 0 0 0 0 0 
0 0 0 0 0 0 0 0 0 
0 0 0 0 0 0 0 0 0 
0 0 0 0 0 0 0 0 0 
0 0 0 0 0 0 0 0 0 
0 0 0 0 0 0 0 0 0 
0 0 0 0 0 0 0 0 0 
0 0 0 0 0 0 0 0 0 
0 0 0 0 0 0 0 0 0 
0 0 0 0 0 0 0 0 0 
0 0 0 0 0 0 0 0 0 
0 0 0 0 0 0 0 0 0 
0 0 0 0 0 0 0 0 0 
0 0 0 0 0 0 0 0 0 
0 0 0 0 0 0 0 0 0 
0 0 0 0 0 0 0 0 0 
0 0 0 0 0 0 0 0 0 
0 0 0 0 0 0 0 0 0 
0 0 0 0 0 0 0 0 0 
0 0 0 0 0 0 0 0 0 
0 0 0 0 0 0 0 0 0 
0 0 0 0 0 0 0 0 0 
0 0 0 0 0 0 0 0 0 
0 0 0 0 0 0 0 0 0 
0 0 0 0 0 0 0 0 0 
0 0 0 0 0 0 0 0 0 
0 0 0 0 0 0 0 0 0 
0 0 0 0 0 0 0 0 0 
0 0 0 0 0 0 0 0 0 
0 0 0 0 0 0 0 0 0 
0 0 0 0 0 0 0 0 0 
0 0 0 0 0 0 0 0 0 
0 0 0 0 0 0 0 0 0 
0 0 0 0 0 0 0 0 0 
0 0 0 0 0 0 0 0 0 
0 0 0 0 0 0 0 0 0 
0 0 0 0 0 0 0 0 0 
0 0 0 0 0 0 0 0 0 
0 0 0 0 0 0 0 0 0 
0 0 0 0 0 0 0 0 0 
0 0 0 0 0 0 0 0 0 
0 0 0 0 0 0 0 0 0 
0 0 0 0 0 0 0 0 0 
0 0 0 0 0 0 0 0 0 
0 0 0 0 0 0 0 0 0 
0 0 0 0 0 0 0 0 0 
0 0 0 0 0 0 0 0 0 
0 0 0 0 0 0 0 0 0 
0 0 0 0 0 0 0 0 0 
0 0 0 0 0 0 0 0 0 
0 0 0 0 0 0 0 0 0 
0 0 0 0 0 0 0 0 0 
0 0 0 0 0 0 0 0 0 
0 0 0 0 0 0 0 0 0 
0 0 0 0 0 0 0 0 0 
0 0 0 0 0 0 0 0 0 
0 0 0 0 0 0 0 0 0 
0 0 0 0 0 0 0 0 0 
0 0 0 0 0 0 0 0 0 
0 0 0 0 0 0 0 0 0 
0 0 0 0 0 0 0 0 0 
0 0 0 0 0 0 0 0 0 
0 0 0 0 0 0 0 0 0 
0 0 0 0 0 0 0 0 0 
0 0 0 0 0 0 0 0 0 
0 0 0 0 0 0 0 0 0 
0 0 0 0 0 0 0 0 0 
0 0 0 0 0 0 0 0 0 
0 0 0 0 0 0 0 0 0 
0 0 0 0 0 0 0 0 0 
0 0 0 0 0 0 0 0 0 
0 0 0 0 0 0 0 0 0 
0 0 0 0 0 0 0 0 0 
0 0 0 0 0 0 0 0 0 
0 0 0 0 0 0 0 0 0 
0 0 0 0 0 0 0 0 0 
0 0 0 0 0 0 0 0 0 
0 0 0 0 0 0 0 0 0 
0 0 0 0 0 0 0 0 0 
0 0 0 0 0 0 0 0 0 
0 0 0 0 0 0 0 0 0 
0 0 0 0 0 0 0 0 0 
0 0 0 0 0 0 0 0 0 
0 0 0 0 0 0 0 0 0 
0 0 0 0 0 0 0 0 0 
0 0 0 0 0 0 0 0 0 
0 0 0 0 0 0 0 0 0 
0 0 0 0 0 0 0 0 0 
0 0 0 0 0 0 0 0 0 
0 0 0 0 0 0 0 0 0 
0 0 0 0 0 0 0 0 0 
0 0 0 0 0 0 0 0 0 
0 0 0 0 0 0 0 0 0 
0 0 0 0 0 0 0 0 0 
0 0 0 0 0 0 0 0 0 
0 0 0 0 0 0 0 0 0 
0 0 0 0 0 0 0 0 0 
0 0 0 0 0 0 0 0 0 
0 0 0 0 0 0 0 0 0 
0 0 0 0 0 0 0 0 0 
0 0 0 0 0 0 0 0 0 
0 0 0 0 0 0 0 0 0 
0 0 0 0 0 0 0 0 0 
0 0 0 0 0 0 0 0 0 
0 0 0 0 0 0 0 0 0 
0 0 0 0 0 0 0 0 0 
0 0 0 0 0 0 0 0 0 
0 0 0 0 0 0 0 0 0 
0 0 0 0 0 0 0 0 0 
0 0 0 0 0 0 0 0 0 
0 0 0 0 0 0 0 0 0 
0 0 0 
v 3 415 double
0 0 0 0 0 0 0 0 0 
-0.00327008 -0.0170143 0.000372906 0 0 0 0 0 0 
0 0 0 0 0 0 0.0085239 -0.00610075 8.43197e-05 
-0.0240273 -0.000879303 -0.00116003 0.0240273 0.000879303 0.00116003 0 0 0 
0 0 0 -0.00582373 -0.00130621 -0.000478323 0.00582373 0.00130621 0.000478323 
0 0 0 0 0 0 -0.012973 0.000270893 -0.00036033 
0 0 0 0 0 0 0 0 0 
0 0 0 -0.00228309 0.00940111 -0.000228573 0 0 0 
-0.000635263 -0.000156798 5.36694e-05 0 0 0 0.00444908 0.00582986 0.00027601 
0 0 0 0 0 0 0 0 0 
0.00555318 0.00761322 -0.000144332 0 0 0 0.000635263 0.000156798 -5.36694e-05 
0 0 0 0 0 0 0 0 0 
0 0 0 0 0 0 0 0 0 
0 0 0 0 0 0 0 0 0 
0 0 0 0 0 0 0 0 0 
0 0 0 0 0 0 0 0 0 
0 0 0 0 0 0 0 0 0 
0 0 0 0 0 0 0 0 0 
0 0 0 0 0 0 0 0 0 
0 0 0 0.00540287 -0.010326 0.000459129 0 0 0 
0.00405785 -0.0187988 -0.000690287 0 0 0 0 0 0 
0 0 0 0 0 0 0 0 0 
0 0 0 0 0 0 0 0 0 
-0.000136729 -0.00471942 4.61897e-05 -0.000581682 -8.8237e-05 -2.89534e-05 0.000581682 8.8237e-05 2.89534e-05 
0 0 0 -0.00383075 0.00148526 0.000359342 0.00383075 -0.00148526 -0.000359342 
0 0 0 0.00111697 -0.000420082 8.346e-05 0 0 0 
-0.00540287 0.010326 -0.000459129 -0.00830446 -0.00787228 -0.000117343 0 0 0 
-0.00405785 0.0187988 0.000690287 0 0 0 0 0 0 
0.00437118 -0.0165713 -0.00041394 0 0 0 0.000136729 0.00471942 -4.61897e-05 
0 0 0 0 0 0 0 0 0 
0 0 0 -0.00548815 0.0169914 0.00033048 0 0 0 
0.00830446 0.00787228 0.000117343 0 0 0 0 0 0 
0 0 0 0 0 0 0 0 0 
0 0 0 0 0 0 0 0 0 
0 0 0 0 0 0 0 0 0 
0 0 0 -0.00129628 -0.0133725 -0.000745583 0 0 0 
0.000139685 -0.000235275 4.79814e-06 0 0 0 0 0 0 
0 0 0 0 0 0 0 0 0 
0 0 0 0 0 0 0.0121488 -0.0158851 -0.00135782 
0 0 0 0.0214996 -0.00832945 -0.00108888 -0.00411284 -0.0192003 -0.000694397 
0 0 0 0 0 0 0.00142372 0.0131063 0.00074795 
0 0 0 -0.0119984 -0.00123828 0.0010437 0.00984229 0.00977204 0.000408622 
-0.000139685 0.000235275 -4.79814e-06 -0.0214996 0.00832945 0.00108888 0 0 0 
0 0 0 -0.000127438 0.000266156 -2.36683e-06 -0.00999273 0.00735135 -9.45021e-05 
0 0 0 0 0 0 0.00411284 0.0192003 0.000694397 
0 0 0 0 0 0 0 0 0 
-0.0248448 0.00125099 0.00143145 0.018643 -0.00472137 -0.00123943 0 0 0 
0 0 0 0 0 0 0 0 0 
0 0 0 0 0 0 0.00620184 0.00347038 -0.000192019 
0 0 0 0 0 0 0 0 0 
0 0 0 0 0 0 0 0 0 
0 0 0 0 0 0 0 0 0 
0 0 0 0 0 0 0 0 0 
0 0 0 0 0 0 -0.0221771 0.002437 -0.000867409 
0.0221771 -0.002437 0.000867409 0 0 0 0 0 0 
0 0 0 0 0 0 0 0 0 
4.74378e-05 -0.00122296 -4.86758e-05 -0.00834319 -0.0109505 -0.000619668 0 0 0 
0 0 0 0 0 0 0 0 0 
0 0 0 0.00582556 -0.00289224 -0.000326149 0 0 0 
0 0 0 -0.015849 -0.012712 0.0011779 0 0 0 
0 0 0 -4.74378e-05 0.00122296 4.86758e-05 0.00834319 0.0109505 0.000619668 
0 0 0 -0.00922914 -0.00755779 0.000744948 0 0 0 
0 0 0 0 0 0 0 0 0 
0 0 0 0 0 0 0 0 0 
0 0 0 0 0 0 -0.00164607 -0.000863818 1.98571e-05 
0.015849 0.012712 -0.0011779 0 0 0 0 0 0 
0 0 0 0 0 0 0.00340358 0.01045 -0.000418799 
0.00164607 0.000863818 -1.98571e-05 -0.000784162 -0.00463941 -5.79844e-05 0 0 0 
0 0 0 0 0 0 0 0 0 
-0.0155613 -0.0166262 0.000284925 0 0 0 0 0 0 
-0.00106992 -0.000815547 -5.29161e-05 -0.00176906 -0.00265609 -2.54488e-05 0 0 0 
0 0 0 0 0 0 0 0 0 
0 0 0 0 0 0 0 0 0 
0.000784162 0.00463941 5.79844e-05 0 0 0 0.00106992 0.000815547 5.29161e-05 
0.00176906 0.00265609 2.54488e-05 0.0104474 -0.0172052 -0.000139931 -0.00946054 0.00184968 0.000313494 
0.00946054 -0.00184968 -0.000313494 0.0155613 0.0166262 -0.000284925 0 0 0 
0 0 0 0 0 0 0 0 0 
0 0 0 0 0 0 0 0 0 
-0.0104474 0.0172052 0.000139931 0 0 0 -0.00147859 -0.000156049 -9.40929e-05 
0.00147859 0.000156049 9.40929e-05 0 0 0 0 0 0 
0 0 0 0 0 0 0 0 0 
0 0 0 0 0 0 0 0 0 
0 0 0 0.00801593 -0.0204045 -0.000412218 0 0 0 
0 0 0 -0.0053035 -0.0152313 0.000388533 0 0 0 
0 0 0 0 0 0 0 0 0 
0 0 0 0 0 0 -0.00244635 -3.29662e-05 0.000134033 
0.00244635 3.29662e-05 -0.000134033 0 0 0 0 0 0 
0 0 0 0 0 0 0 0 0 
0 0 0 -0.00801593 0.0204045 0.000412218 0 0 0 
-0.00422245 0.00667096 -0.000470399 0 0 0 0 0 0 
0 0 0 0 0 0 0 0 0 
0 0 0 0 0 0 0.00952595 0.00856039 8.18656e-05 
0 0 0 0 0 0 0 0 0 
0 0 0 0 0 0 0 0 0 
0 0 0 0 0 0 0 0 0 
0 0 0 0 0 0 0 0 0 
0 0 0 -0.00494131 -0.00211624 -0.000395214 0 0 0 
0 0 0 0 0 0 0 0 0 
0 0 0 0 0 0 0.00145711 -0.000916099 5.28505e-05 
0 0 0 0 0 0 0.00157237 -0.00347414 0.000732439 
0 0 0 0 0 0 0 0 0 
9.09535e-06 -0.000541321 -3.76058e-05 0 0 0 0 0 0 
-0.00145711 0.000916099 -5.28505e-05 0 0 0 0 0 0 
0 0 0 0 0 0 0 0 0 
0 0 0 0 0 0 0.00336894 0.00559037 -0.000337225 
0 0 0 0 0 0 -9.09535e-06 0.000541321 3.76058e-05 
0 0 0 0 0 0 0 0 0 
0 0 0 0 0 0 0 0 0 
0 0 0 0 0 0 -0.000737757 -0.0235633 2.47846e-05 
0 0 0 0 0 0 0 0 0 
0 0 0 0 0 0 0 0 0 
0 0 0 0 0 0 0 0 0 
0 0 0 0 0 0 -0.00417695 -0.0028734 0.000194249 
0 0 0 0 0 0 0.000737757 0.0235633 -2.47846e-05 
0.00417695 0.0028734 -0.000194249 0 0 0 0 0 0 
0 0 0 0 0 0 0 0 0 
0 0 0 0 0 0 0 0 0 
0 0 0 0 0 0 0 0 0 
0 0 0 0 0 0 0 0 0 
0 0 0 0 0 0 0 0 0 
0 0 0 0 0 0 0 0 0 
0 0 0 0 0 0 -2.59056e-07 2.48209e-08 2.42082e-09 
2.59056e-07 -2.48209e-08 -2.42082e-09 -2.48348e-05 -8.79743e-05 1.33514e-06 0 0 0 
0 0 0 0 0 0 0 0 0 
0 0 0 0 0 0 0 0 0 
0 0 0 0 0 0 0 0 0 
0 0 0 2.48348e-05 8.79743e-05 -1.33514e-06 0 0 0 
0 0 0 0 0 0 0 0 0 
0 0 0 0 0 0 -0.00574948 -0.00466245 5.84716e-05 
0 0 0 0 0 0 0 0 0 
0 0 0 -0.0038322 -0.00501623 -0.00020415 0 0 0 
0 0 0 0 0 0 -0.00309252 -0.0234546 -0.00208214 
-0.0132185 -0.00233292 0.000711037 0 0 0 0 0 0 
0 0 0 0.00574948 0.00466245 -5.84716e-05 0 0 0 
0 0 0 0 0 0 0 0 0 
0 0 0 0.0132185 0.00233292 -0.000711037 0.0038322 0.00501623 0.00020415 
0 0 0 0 0 0 0 0 0 
0 0 0 0.00309252 0.0234546 0.00208214 0 0 0 
0 0 0 
f 3 415 double
0 0 0 0 0 0 0 0 0 
-0.352754 -1.82569 0.0404316 0 0 0 0 0 0 
0 0 0 0 0 0 1.1918 -0.856396 0.0117998 
-2.10863 -0.0771673 -0.10312 2.10863 0.0771673 0.10312 0 0 0 
0 0 0 -1.0936 -0.245284 -0.0903735 1.0936 0.245284 0.0903735 
0 0 0 0 0 0 -1.94155 -0.131432 -0.0587702 
0 0 0 0 0 0 0 0 0 
0 0 0 -0.492269 0.663257 -0.018212 0 0 0 
-0.368103 -0.0908568 0.0311611 0 0 0 0.749756 0.987829 0.0469704 
0 0 0 0 0 0 0 0 0 
0.845023 1.16243 -0.0222196 0 0 0 0.368103 0.0908568 -0.0311611 
0 0 0 0 0 0 0 0 0 
0 0 0 0 0 0 0 0 0 
0 0 0 0 0 0 0 0 0 
0 0 0 0 0 0 0 0 0 
0 0 0 0 0 0 0 0 0 
0 0 0 0 0 0 0 0 0 
0 0 0 0 0 0 0 0 0 
0 0 0 0 0 0 0 0 0 
0 0 0 0.7137 -1.36402 0.061177 0 0 0 
0.405848 -1.88017 -0.0698267 0 0 0 0 0 0 
0 0 0 0 0 0 0 0 0 
0 0 0 0 0 0 0 0 0 
-0.0291471 -1.00606 0.00989994 -0.356726 -0.0541128 -0.0177898 0.356726 0.0541128 0.0177898 
0 0 0 -0.872362 0.338233 0.0822476 0.872362 -0.338233 -0.0822476 
0 0 0 0.490923 -0.185342 0.0367445 0 0 0 
-0.7137 1.36402 -0.061177 -1.10923 -1.0515 -0.0158085 0 0 0 
-0.405848 1.88017 0.0698267 0 0 0 0 0 0 
0.0825258 -1.58938 -0.0716197 0 0 0 0.0291471 1.00606 -0.00989994 
0 0 0 0 0 0 0 0 0 
0 0 0 -0.573449 1.77472 0.0348752 0 0 0 
1.10923 1.0515 0.0158085 0 0 0 0 0 0 
0 0 0 0 0 0 0 0 0 
0 0 0 0 0 0 0 0 0 
0 0 0 0 0 0 0 0 0 
0 0 0 -0.158235 -1.63255 -0.0918763 0 0 0 
0.126037 -0.212288 0.00433493 0 0 0 0 0 0 
0 0 0 0 0 0 0 0 0 
0 0 0 0 0 0 0.82771 -1.75553 -0.138515 
0 0 0 1.93417 -0.749344 -0.0991961 -0.406491 -1.89766 -0.0694222 
0 0 0 0 0 0 0.272117 1.39453 0.0939864 
0 0 0 -0.710228 -0.412041 0.100724 1.21237 1.19271 0.050079 
-0.126037 0.212288 -0.00433493 -1.93417 0.749344 0.0991961 0 0 0 
0 0 0 -0.113882 0.238022 -0.00211008 -1.32985 0.974861 -0.0122881 
0 0 0 0 0 0 0.406491 1.89766 0.0694222 
0 0 0 0 0 0 0 0 0 
-2.14745 0.106399 0.125279 1.03189 -0.727526 -0.0903855 0 0 0 
0 0 0 0 0 0 0 0 0 
0 0 0 0 0 0 1.11556 0.621127 -0.0348936 
0 0 0 0 0 0 0 0 0 
0 0 0 0 0 0 0 0 0 
0 0 0 0 0 0 0 0 0 
0 0 0 0 0 0 0 0 0 
0 0 0 0 0 0 -2.03524 0.223649 -0.0805903 
2.03524 -0.223649 0.0805903 0 0 0 0 0 0 
0 0 0 0 0 0 0 0 0 
0.0201218 -0.518745 -0.0207035 -1.00579 -1.32012 -0.0754133 0 0 0 
0 0 0 0 0 0 0 0 0 
0 0 0 1.05047 -0.524964 -0.0591252 0 0 0 
0 0 0 -1.53323 -1.22976 0.115292 0 0 0 
0 0 0 -0.0201218 0.518745 0.0207035 1.00579 1.32012 0.0754133 
0 0 0 -1.51285 -0.9025 0.116649 0 0 0 
0 0 0 0 0 0 0 0 0 
0 0 0 0 0 0 0 0 0 
0 0 0 0 0 0 -0.56559 -0.296807 0.00684592 
1.53323 1.22976 -0.115292 0 0 0 0 0 0 
0 0 0 0 0 0 0.462383 1.42746 -0.0575242 
0.56559 0.296807 -0.00684592 -0.167454 -0.990725 -0.0124494 0 0 0 
0 0 0 0 0 0 0 0 0 
-1.41275 -1.50943 0.026191 0 0 0 0 0 0 
-0.43264 -0.329779 -0.0214589 -0.461435 -0.692806 -0.00666747 0 0 0 
0 0 0 0 0 0 0 0 0 
0 0 0 0 0 0 0 0 0 
0.167454 0.990725 0.0124494 0 0 0 0.43264 0.329779 0.0214589 
0.461435 0.692806 0.00666747 1.01902 -1.67817 -0.0138081 -1.38483 0.270755 0.04625 
1.38483 -0.270755 -0.04625 1.41275 1.50943 -0.026191 0 0 0 
0 0 0 0 0 0 0 0 0 
0 0 0 0 0 0 0 0 0 
-1.01902 1.67817 0.0138081 0 0 0 -0.567319 -0.059874 -0.0362115 
0.567319 0.059874 0.0362115 0 0 0 0 0 0 
0 0 0 0 0 0 0 0 0 
0 0 0 0 0 0 0 0 0 
0 0 0 0.743964 -1.89375 -0.0387271 0 0 0 
0 0 0 -0.598466 -1.71004 0.0439303 0 0 0 
0 0 0 0 0 0 0 0 0 
0 0 0 0 0 0 -0.729313 -0.00982798 0.0401138 
0.729313 0.00982798 -0.0401138 0 0 0 0 0 0 
0 0 0 0 0 0 0 0 0 
0 0 0 -0.743964 1.89375 0.0387271 0 0 0 
-0.624404 0.60691 -0.054362 0 0 0 0 0 0 
0 0 0 0 0 0 0 0 0 
0 0 0 0 0 0 1.22287 1.10313 0.0104317 
0 0 0 0 0 0 0 0 0 
0 0 0 0 0 0 0 0 0 
0 0 0 0 0 0 0 0 0 
0 0 0 0 0 0 0 0 0 
0 0 0 -0.9884 -0.424443 -0.079347 0 0 0 
0 0 0 0 0 0 0 0 0 
0 0 0 0 0 0 0.520294 -0.327115 0.0189329 
0 0 0 0 0 0 0.378485 -0.585794 0.14052 
0 0 0 0 0 0 0 0 0 