ITEM: TIMESTEP
3000
ITEM: NUMBER OF ATOMS
415
ITEM: BOX BOUNDS pp pp pp
0.0165 0.129559
0.0165 0.129559
0 0.0055
ITEM: ATOMS id type x y z ix iy iz vx vy vz fx fy fz omegax omegay omegaz radius 
1 1 0.0451933 0.102193 0.00292093 0 0 0 0.190477 0.109063 0.025474 1.54777 0.816609 0.0957166 1.97056 -1.59897 70.2 0.0025 
2 1 0.0299468 0.116861 0.00272194 0 0 0 -0.0820131 0.148572 0.00713062 -1.17428 2.04083 0.105926 -0.0212449 -0.0120502 0.00424403 0.0025 
3 1 0.0795637 0.0758977 0.0028175 0 0 0 -0.163919 0.0714724 0.00803125 1.45253 3.86533 0.180144 0.220123 -0.388153 5.52946 0.0025 
4 1 0.103273 0.0610691 0.00266083 0 0 0 0 0 0 0 0 0 0 0 0 0.0025 
5 1 0.0417116 0.0653588 0.00282997 0 0 0 -0.0976579 0.0980788 0.0145873 -3.23638 0.00597615 0.16823 1.77636 1.17236 -36.9351 0.0025 
6 1 0.0432665 0.0493985 0.0024907 0 0 0 0.314898 -0.112284 -0.0211794 3.00982 -0.124208 -0.22094 -3.691 4.46091 -15.652 0.0025 
7 1 0.0338615 0.0333696 0.0025942 0 0 0 -0.0404654 0.0204292 -0.00255962 -3.17838 0.705426 -0.259717 -0.219139 -0.290498 2.44399 0.0025 
8 1 0.081047 0.0526742 0.00286502 0 0 0 0 0 0 0 0 0 0 0 0 0.0025 
9 1 0.0543409 0.0382557 0.00255366 0 0 0 0.0346414 0.146677 -0.0202486 4.62812 3.96801 0.0436744 -5.14497 -1.6809 17.2748 0.0025 
10 1 0.11091 0.0877186 0.00262833 0 0 0 -0.0599272 0.187293 -0.0102266 -0.939416 4.49336 -0.419363 -1.26195 -1.04237 -12.2987 0.0025 
11 1 0.0756655 0.050842 0.00263773 0 0 0 0.0063797 -0.230776 0.00561137 0.295136 -2.78913 0.0347216 -0.71913 -0.0785611 -2.06374 0.0025 
12 1 0.0185172 0.0552283 0.0027063 0 0 0 -0.0346253 -0.0601863 0.000401521 -2.21434 -3.87019 0.0253097 0.308166 -0.131084 6.92494 0.0025 
13 1 0.0909382 0.119548 0.00282331 0 0 0 0.0252886 0.0110865 0.0210646 -2.33725 1.80443 0.148309 0.0328495 1.10235 -3.37896 0.0025 
14 1 0.075823 0.103848 0.00275744 0 0 0 0.128702 0.190656 0.00181716 1.27905 2.13949 -0.033333 0.742001 -0.451263 -4.34781 0.0025 
15 1 0.0996143 0.0789226 0.00262064 0 0 0 0.189146 0.309591 -0.0169928 -1.80745 -2.8503 -0.25804 -0.088087 1.33619 61.7301 0.0025 
16 1 0.0480477 0.0771867 0.00280951 0 0 0 0.253149 0.266892 -0.00319603 0.589834 4.32718 -0.0453023 -0.544993 -0.317487 -47.9863 0.0025 
17 1 0.075823 0.043021 0.00251412 0 0 0 0.249225 -0.206296 -0.00662217 4.32535 -3.68456 -0.112257 1.26679 1.05795 14.5817 0.0025 
18 1 0.0973002 0.0592972 0.00278372 0 0 0 -0.00481442 0.257112 -0.000280876 -2.84873 3.73231 -0.0480167 0.413515 -0.155576 -24.5443 0.0025 
19 1 0.0821501 0.0283084 0.00274077 0 0 0 -0.0368905 -0.0408387 0.00191666 -2.19278 -2.4289 0.11657 0.000253176 -0.000331146 -0.00214231 0.0025 
20 1 0.0701495 0.078383 0.00253591 0 0 0 0.0465899 -0.104772 -0.0141942 4.86852 -1.75198 -0.0314209 0.49039 1.8262 -10.7532 0.0025 
21 1 0.0676577 0.0441179 0.00292145 0 0 0 -0.0315215 -0.0131745 0.00356404 -0.826424 -1.02593 0.361851 -0.0871326 -0.301487 -2.45936 0.0025 
22 1 0.0939154 0.0931777 0.00252484 0 0 0 -0.152042 0.0262874 -0.0136125 -2.89215 0.569734 -0.445835 1.25606 -1.24864 -4.63914 0.0025 
23 1 0.122975 0.0704067 0.00274434 0 0 0 0.118415 -0.147321 0.0071727 0 0 0 0.0597781 0.0480491 2.09209e-12 0.0025 
24 1 0.11459 0.027576 0.00254057 0 0 0 0.148772 0.0108196 -0.00676869 1.70936 -0.310778 -0.155977 0.0080414 -0.0282186 -0.143062 0.0025 
25 1 0.100171 0.0429668 0.00250764 0 0 0 -9.35793e-05 -0.000112722 -7.60846e-06 -0.163593 -0.198331 -0.0132385 -0.00202291 0.000784156 0.0132633 0.0025 
26 1 0.0495024 0.0189052 0.00297806 0 0 0 0 0 0 0 0 0 0 0 0 0.0025 
27 1 0.0482614 0.0724891 0.00296941 0 0 0 -0.0790873 0.0637435 0.0209651 -2.68628 3.40401 0.663188 1.46489 1.018 -38.575 0.0025 
28 1 0.0723179 0.0884003 0.00271555 0 0 0 0.00272535 -0.00301491 -0.000114971 0.700592 -0.775028 -0.0297206 -4.08204e-07 -3.68999e-07 1.57873e-17 0.0025 
29 1 0.113489 0.0220667 0.0028586 0 0 0 0 0 0 0 0 0 0 0 0 0.0025 
30 1 0.1218 0.0244216 0.00277101 0 0 0 -0.208587 0.050914 0.014879 -1.76674 0.812875 0.0230853 1.63127 2.82375 -41.3369 0.0025 
31 1 0.0922631 0.024073 0.00283658 0 0 0 -0.287853 -0.115706 -0.00711213 -4.77036 -2.52065 -0.106666 0.216086 -3.8212 -13.4543 0.0025 
32 1 0.0928254 0.0287784 0.00290315 0 0 0 -0.133864 0.150203 0.0102892 -3.81914 3.02687 0.254322 0.149747 0.14646 -14.7554 0.0025 
33 1 0.0969378 0.0833893 0.00285024 0 0 0 0 0 0 0 0 0 0 0 0 0.0025 
34 1 0.0540317 0.0987923 0.0029013 0 0 0 0.0234354 -0.266562 0.00697591 -2.99138 -5.99313 0.324071 0.643259 0.819116 26.3535 0.0025 
35 1 0.0652406 0.0184298 0.00252234 0 0 0 -0.167463 -0.0570973 -0.0140752 -4.82611 -1.74452 -0.420172 4.16724 -1.83585 -42.0188 0.0025 
36 1 0.12621 0.0223929 0.0027748 0 0 0 0.0947476 -0.0506507 0.00236958 1.45875 -1.30193 0.0622082 0.638362 1.38227 4.57267 0.0025 
37 1 0.0355404 0.0569791 0.00279897 0 0 0 -0.0687868 0.236262 -0.00424163 -2.50572 8.64963 -0.174841 0.216395 -0.103007 -9.18555 0.0025 
38 1 0.0409945 0.0537186 0.00258924 0 0 0 -0.127001 -0.151653 -0.0171062 -2.86573 -6.94433 -0.870227 1.24191 -2.54985 -19.9895 0.0025 
39 1 0.0514229 0.0847516 0.00273473 0 0 0 -0.106609 -0.153637 -2.02635e-05 1.83934 0.183106 -0.0390831 -0.0672927 0.0500306 0.877721 0.0025 
40 1 0.0895205 0.0726249 0.0025075 0 0 0 0.0110472 0.0203378 -0.00109422 1.22332 2.29321 -0.123897 0.0916131 0.217331 4.96441 0.0025 
41 1 0.0384466 0.0837213 0.00271632 0 0 0 0.0258532 0.0458214 -0.000979069 1.57971 2.80005 -0.0611761 0.00022273 -0.000127077 -6.45917e-05 0.0025 
42 1 0.0346918 0.108486 0.00251139 0 0 0 -0.182495 -0.00171577 -0.0111098 -1.144 -1.63746 -0.129357 -0.029241 -0.0827436 0.0639951 0.0025 
43 1 0.0472215 0.12449 0.0025763 0 0 0 0 0 0 0 0 0 0 0 0 0.0025 
44 1 0.0952487 0.108853 0.00293597 0 0 0 -0.068483 0.172333 0.0109251 0 0 0 -0.106383 -0.0422755 6.06309e-13 0.0025 
45 1 0.0361133 0.079586 0.0028066 0 0 0 -0.0259942 -0.044924 0.000982424 -1.69318 -2.08274 0.0637808 -0.00585024 -0.00160724 0.140619 0.0025 
46 1 0.0303625 0.0750474 0.0027 0 0 0 -0.0878184 0.0647093 0.00116882 -5.12039 3.80958 0.0852234 0.922441 1.34302 -5.07752 0.0025 
47 1 0.0192105 0.0228612 0.0025203 0 0 0 -0.33354 0.105659 -0.0151746 -1.15744 0.0256053 -0.0665241 1.73615 0.72512 -32.3252 0.0025 
48 1 0.0997715 0.112685 0.00256386 0 0 0 0 0 0 0 0 0 0 0 0 0.0025 
49 1 0.0551659 0.0269052 0.0028574 0 0 0 -0.0595094 0.0441634 0.0122125 1.73389 -1.77926 0.331798 -0.51621 -0.174761 -5.00317 0.0025 
50 1 0.0643778 0.0560508 0.00267835 0 0 0 0 0 0 0 0 0 0 0 0 0.0025 
51 1 0.0445395 0.044575 0.00287295 0 0 0 0 0 0 0 0 0 0 0 0 0.0025 
52 1 0.0817004 0.120284 0.00259159 0 0 0 -0.0265557 0.125958 -0.0142969 -0.0957761 -4.49056 0.0957143 -0.527211 0.362711 0.548481 0.0025 
53 1 0.0968756 0.0508871 0.00295636 0 0 0 0.0526262 -0.164274 0.00658286 1.53963 -5.00703 0.205984 -0.695103 0.324648 13.5927 0.0025 
54 1 0.0245407 0.0502323 0.00291759 0 0 0 0 0 0 0 0 0 0 0 0 0.0025 
55 1 0.022763 0.0795726 0.00257909 0 0 0 0.0840002 -0.0100684 -0.0483116 -3.97187 0.776667 -0.794217 -4.19185 -2.51627 -16.025 0.0025 
56 1 0.0646689 0.0855282 0.0027676 0 0 0 0.00103748 -0.00148174 -4.9827e-05 0.544935 -0.783237 -0.0264061 -0.00467677 0.00195664 -0.155567 0.0025 
57 1 0.0453236 0.0974645 0.00242089 0 0 0 0.0459388 -0.00152957 -0.042437 -3.7914 2.85064 -0.537405 -0.979939 -1.01294 -23.7467 0.0025 
58 1 0.10935 0.037519 0.00278941 0 0 0 -0.0969211 -0.139625 0.01497 1.9475 -5.43505 -0.0607797 -2.76791 1.42556 8.53547 0.0025 
59 1 0.0579509 0.124045 0.00250698 0 0 0 0.119051 -0.0314694 -0.00319237 3.39263 -0.896791 -0.0949435 -0.00111596 -0.00422177 -2.45316e-14 0.0025 
60 1 0.102543 0.105507 0.00252453 0 0 0 -0.0216808 0.129943 -0.00461553 -1.22389 2.98843 -0.169373 0.0466967 0.583728 15.2833 0.0025 
61 1 0.0660312 0.0803389 0.00262598 0 0 0 -0.223147 0.100095 0.000566204 -2.44477 3.48019 -0.0367451 0.782486 2.36574 -9.73745 0.0025 
62 1 0.0824575 0.105391 0.00296862 0 0 0 -0.0168571 -0.0887632 0.00582509 -0.670535 -3.53079 0.239366 0.00406521 -0.000772028 1.99897e-14 0.0025 
63 1 0.123103 0.0368168 0.00267924 0 0 0 -0.0648206 -0.0580738 -0.00272908 6.61607 0.18981 0.0215604 -0.195864 0.295431 6.62338 0.0025 
64 1 0.0588559 0.0481487 0.00279354 0 0 0 -0.114937 -0.0939915 0.0131495 0.434303 2.56943 -0.137511 -2.16263 3.46536 -65.9358 0.0025 
65 1 0.0366386 0.0895917 0.00298462 0 0 0 0.0042843 0.000211805 0.000190711 1.07023 0.0529095 0.0479149 -4.89843e-08 9.90837e-07 -4.39987e-17 0.0025 
66 1 0.123652 0.0315552 0.00250249 0 0 0 -0.11129 0.00782848 -0.0127759 4.44236 4.12127 -0.279022 -0.074213 1.20243 31.3218 0.0025 
67 1 0.0281875 0.12152 0.00300064 0 0 0 -0.263109 -0.231047 0.0161353 -1.52482 -0.603691 0.113729 1.95633 0.00692083 31.2122 0.0025 
68 1 0.0706208 0.0230398 0.00286667 0 0 0 0.119556 -0.0305693 0.00664214 1.61458 0.397104 0.25175 -0.656027 0.271847 7.73912 0.0025 
69 1 0.0808812 0.100599 0.00273977 0 0 0 -0.113123 0.0339481 -0.00107795 -5.22099 1.54495 -0.0481062 -0.107414 -0.442069 -2.63489 0.0025 
70 1 0.0464575 0.0377071 0.00265775 0 0 0 -0.0532141 -0.0348962 -0.0117728 -0.628296 -0.411686 -0.254759 -1.29293 1.55549 12.207 0.0025 
71 1 0.0673136 0.0378969 0.0026915 0 0 0 0.0271089 0.0221899 -0.00207104 2.14829 1.75848 -0.167025 0.000175725 -0.00021468 1.11679e-14 0.0025 
72 1 0.0578244 0.0435002 0.00292454 0 0 0 0.253662 0.11088 0.0127357 1.74091 -1.37344 0.231054 1.83841 1.33017 -47.3464 0.0025 
73 1 0.0795045 0.0823287 0.00249985 0 0 0 0.269255 -0.098523 -0.0134127 4.59927 -1.58573 -0.229457 0.230879 3.06604 -17.7384 0.0025 
74 1 0.100138 0.122935 0.0024274 0 0 0 0.1606 -0.0358961 -0.031302 -0.237896 5.74334 -0.233331 -4.9014 3.40698 -38.412 0.0025 
75 1 0.119778 0.0423504 0.00257353 0 0 0 -0.116984 -0.0181816 -0.0145996 4.31455 7.18763 -0.109939 -0.515457 1.07939 13.2901 0.0025 
76 1 0.111469 0.126008 0.00294028 0 0 0 0.0956469 0.0424014 0.0104612 -5.34725 -0.557225 0.192481 -0.13068 0.685104 -1.25455 0.0025 
77 1 0.122935 0.0557189 0.00274979 0 0 0 -0.0303858 -0.0350708 -0.00105525 -2.0299 -2.39868 -0.0715475 0.0272748 -0.004723 -0.624167 0.0025 
78 1 0.0799583 0.092052 0.0028755 0 0 0 -0.00553625 -0.00912835 0.000488466 -0.759385 -1.81447 0.0805104 -0.00466805 -0.000739424 -0.303569 0.0025 
79 1 0.0566493 0.0744666 0.00290238 0 0 0 -0.0424435 0.0116563 0.0060691 -3.35287 6.50072 0.351258 0.161209 0.313596 11.337 0.0025 
80 1 0.0758474 0.127303 0.00250719 0 0 0 -0.0614173 0.114358 -0.00168426 -2.28633 3.5177 -0.0704469 0.354726 0.600785 27.5549 0.0025 
81 1 0.0424941 0.115 0.00274454 0 0 0 -0.185894 0.0187676 0.00190069 0 0 0 0.00760473 -0.00954448 0.775547 0.0025 
82 1 0.0233097 0.126865 0.00246785 0 0 0 0.185302 0.0439829 -0.013536 0 0 0 0.0337673 -0.142264 1.60698e-12 0.0025 
83 1 0.0226881 0.118342 0.00255134 0 0 0 0 0 0 0 0 0 0 0 0 0.0025 
84 1 0.0657573 0.109849 0.00250116 0 0 0 -0.100256 0.125469 -0.0120321 -3.61307 4.38777 -0.445534 -1.57254 0.0672163 13.8088 0.0025 
85 1 0.102892 0.0471336 0.00267655 0 0 0 -0.202613 -0.0305648 -0.0258438 -1.61304 -1.33024 -0.190608 0.123563 -0.284918 6.68009 0.0025 
86 1 0.118643 0.0933492 0.00256787 0 0 0 -0.0346503 -0.204661 -0.0219714 4.67844 -2.42309 -0.086487 5.7791 -4.5313 -18.9033 0.0025 
87 1 0.114973 0.0639102 0.00287704 0 0 0 -0.212345 0.0769667 0.0220683 -0.335487 1.50408 0.0754815 3.69352 -0.95401 38.5729 0.0025 
88 1 0.0584574 0.0555895 0.00263084 0 0 0 0.225859 -0.145828 -0.0073561 7.46963 -2.64902 -0.0737591 0.505658 -1.83907 -22.804 0.0025 
89 1 0.0737226 0.0737359 0.00265607 0 0 0 4.29347e-06 5.04111e-06 6.63639e-08 0.041541 0.0484797 0.00071792 5.97314e-05 -4.84625e-05 -0.000183036 0.0025 
90 1 0.0901586 0.110061 0.00260423 0 0 0 0 0 0 0 0 0 0 0 0 0.0025 
91 1 0.116458 0.0826355 0.00284245 0 0 0 0.0732912 -0.14043 0.00872402 1.80479 1.07341 0.0283804 -0.753762 -0.428546 -33.0169 0.0025 
92 1 0.0430648 0.0199541 0.00262534 0 0 0 0 0 0 0 0 0 0 0 0 0.0025 
93 1 0.0304572 0.0509573 0.00292174 0 0 0 -0.0124589 0.112755 0.0130774 0.568987 2.42956 0.24814 0.610347 -0.1202 0.623555 0.0025 
94 1 0.0809905 0.0409054 0.00272205 0 0 0 0.139744 0.130402 0.00206956 0.555425 0.482791 -0.00224675 0.00991804 -0.0320407 1.18026 0.0025 
95 1 0.0487487 0.0480457 0.00254158 0 0 0 -0.0117842 0.000518967 -0.000767502 -2.18229 0.114113 -0.14365 0.0783752 -0.265575 -1.38373 0.0025 
96 1 0.0700878 0.049669 0.0025069 0 0 0 0.13911 -0.0192534 -0.0273102 0.454854 -1.76969 -0.513854 0.514246 2.12105 -43.4613 0.0025 
97 1 0.0201178 0.0881728 0.00289276 0 0 0 -0.019812 0.0850647 0.0194892 3.13236 -7.06277 0.677837 -2.24037 -0.712385 24.7822 0.0025 
98 1 0.0879887 0.0206171 0.00285921 0 0 0 -0.0611073 0.0212567 0.00536527 -1.72881 -0.084377 0.270667 -0.0301589 -0.0238879 0.0080244 0.0025 
99 1 0.0434228 0.0758198 0.0028155 0 0 0 -0.12011 0.0480744 0.00101139 0.366173 -3.32344 -0.0449217 -0.164804 0.287991 4.96334 0.0025 
100 1 0.0865539 0.0798943 0.00259683 0 0 0 0.0238073 -0.117648 -0.0010403 -1.32837 -5.77353 -0.174855 -0.0260536 -0.0947135 12.8905 0.0025 
101 1 0.0260421 0.0717247 0.00275345 0 0 0 0 0 0 0 0 0 0 0 0 0.0025 
102 1 0.110443 0.0419944 0.00251427 0 0 0 -0.149612 0.195343 -0.0358482 0.0880242 -2.06846 -0.782376 -0.730939 3.26788 11.0751 0.0025 
103 1 0.0521837 0.0304714 0.0027268 0 0 0 0.135084 -0.193324 0.000110022 -1.06938 1.21475 -0.109824 -0.851833 -0.126381 0.202946 0.0025 
104 1 0.0554814 0.104573 0.00288724 0 0 0 0.00220007 0.00331864 5.94793e-05 0.291242 1.16432 0.0335062 0.0171054 -0.00189845 0.216061 0.0025 
105 1 0.106725 0.124642 0.00271997 0 0 0 -0.189624 -0.0540958 -0.00798746 -0.718294 -0.174982 -0.023944 -0.00736527 -0.0031019 0.181672 0.0025 
106 1 0.0219705 0.0839719 0.00277439 0 0 0 0.0463455 0.174061 0.00159133 1.0265 1.7914 -0.0882148 4.46642 0.223266 17.799 0.0025 
107 1 0.124646 0.0768573 0.00275786 0 0 0 0 0 0 0 0 0 0 0 0 0.0025 
108 1 0.0762946 0.0670418 0.0024976 0 0 0 -0.0925507 -0.164079 -0.00249409 0.380639 -0.103852 -0.0205085 -0.0105114 0.00263979 0.0828885 0.0025 
109 1 0.0922972 0.0363501 0.00290779 0 0 0 0.135686 2.34776e-05 0.00966372 3.55791 -0.223176 0.244803 -0.293751 -0.352287 4.03394 0.0025 
110 1 0.0703552 0.0700493 0.00253342 0 0 0 0.0564056 0.318995 -0.0116903 1.28638 -1.13575 -0.0255712 -2.64809 -1.47469 -49.7195 0.0025 
111 1 0.0323413 0.0423064 0.00292626 0 0 0 0.0292927 0.180218 0.00657578 0 0 0 0.308813 0.284109 -8.66624 0.0025 
112 1 0.0852128 0.0991261 0.0028121 0 0 0 -0.065893 -0.0399927 0.00980159 0.725889 -1.19994 0.275411 -0.0394409 -0.197455 -1.17016 0.0025 
113 1 0.0869857 0.0487863 0.00302945 0 0 0 -0.0770253 0.0271161 0.0392689 2.80553 3.45434 0.748834 -0.086995 -6.09533 -19.5681 0.0025 
114 1 0.0928254 0.115492 0.00267081 0 0 0 0.158321 -0.283263 -0.00470902 3.24753 -5.897 -0.0976283 2.70281 1.7629 -15.3442 0.0025 
115 1 0.0309925 0.0374017 0.00268536 0 0 0 -0.076174 -0.0831105 -0.0275566 5.84014 4.14017 -0.53623 -4.62469 -1.82886 8.17081 0.0025 
116 1 0.0808444 0.0468822 0.00265502 0 0 0 -0.0042383 0.00155384 -5.50518e-06 -1.35094 0.491971 -0.0016874 0.036048 0.0971607 -0.330738 0.0025 
117 1 0.0250723 0.0601996 0.00249087 0 0 0 0.190466 0.0270185 -0.00814229 1.33405 0.296638 -0.0623667 -0.0254175 -0.0411941 -0.687439 0.0025 
118 1 0.0432837 0.121362 0.00250088 0 0 0 0.295498 -0.133388 -0.00499869 3.94051 -1.84757 -0.0513849 -0.792035 -2.23185 12.7609 0.0025 
119 1 0.0904376 0.124196 0.00251304 0 0 0 0.218797 0.104929 -0.017008 6.48088 0.249355 -0.400447 -1.63495 2.5442 26.0783 0.0025 
120 1 0.0698118 0.0320491 0.00263767 0 0 0 0 0 0 0 0 0 0 0 0 0.0025 
121 1 0.019554 0.0406185 0.00257818 0 0 0 -0.0510656 0.0237247 -0.0032933 -3.80378 1.11926 -0.281814 0.560202 0.173698 -9.51025 0.0025 
122 1 0.108406 0.0917937 0.00279922 0 0 0 -0.00767003 0.0138598 0.000359811 -1.32492 2.40041 0.0626881 0.136628 0.0615783 0.540258 0.0025 
123 1 0.109821 0.0972732 0.00252902 0 0 0 0 0 0 0 0 0 0 0 0 0.0025 
124 1 0.109846 0.027192 0.00275965 0 0 0 -0.152339 -0.0123371 0.00672731 -3.01009 -0.243989 0.140599 0.00130384 -0.0162764 -0.000308837 0.0025 
125 1 0.0587278 0.0661078 0.00281268 0 0 0 0 0 0 0 0 0 0 0 0 0.0025 
126 1 0.0542814 0.0888637 0.00272305 0 0 0 -0.0748863 0.118977 -0.00795977 -7.50295 -3.6028 -0.386599 0.770054 0.124506 -10.3543 0.0025 
127 1 0.0709526 0.121303 0.00290416 0 0 0 -0.114303 0.00201143 0.0154335 0.139424 -0.221598 0.408435 0.663442 0.382314 9.47676 0.0025 
128 1 0.103319 0.0675977 0.00255433 0 0 0 -0.201845 0.0539208 -0.0288035 -0.890912 -1.97816 -0.646237 0.318285 -1.30169 -7.24001 0.0025 
129 1 0.113222 0.0785997 0.00284151 0 0 0 0.0253852 -0.190139 -0.00111661 -0.0330858 -0.185053 0.00588562 0.374713 -0.0279987 12.727 0.0025 
130 1 0.0220729 0.036762 0.00265651 0 0 0 -0.178569 0.021604 -0.0133225 1.68828 0.766939 -0.0878515 -1.50116 -0.536509 28.6699 0.0025 
131 1 0.0458172 0.0672481 0.00269387 0 0 0 0.224046 0.132529 -0.00376965 1.67095 1.74268 -0.0263957 -1.36588 2.06683 -12.7993 0.0025 
132 1 0.0317335 0.0893492 0.002765 0 0 0 -0.0042843 -0.000211805 -0.000190711 -1.07023 -0.0529095 -0.0479149 -4.89843e-08 9.90837e-07 -4.39987e-17 0.0025 
133 1 0.0646519 0.101932 0.00279747 0 0 0 0.0153875 -0.0201357 0.00186695 -0.128868 1.57526 0.0135076 1.46498 -1.8134 -12.34 0.0025 
134 1 0.0634795 0.0416803 0.00276648 0 0 0 -0.0118091 -0.0109093 -0.000283383 -1.53015 -2.54121 -0.00263431 -0.0633473 -0.0498221 -0.367193 0.0025 
135 1 0.0262828 0.0951899 0.00271101 0 0 0 -0.183634 -0.0550818 0.00542821 0 0 0 0.0169389 -0.0564714 -7.18257e-13 0.0025 
136 1 0.113147 0.0522679 0.00280171 0 0 0 0.0113825 0.0516301 0.00149518 0.835408 -5.6507 -0.033385 -0.127061 -0.0178007 0.513033 0.0025 
137 1 0.0531793 0.0646829 0.00251774 0 0 0 0.0947511 -0.185238 -0.00458237 0.201136 -1.19989 -0.0712033 -0.833963 -0.8867 17.7481 0.0025 
138 1 0.0394909 0.108405 0.00282282 0 0 0 0.0768924 0.0681229 0.0156756 -5.08876 5.11691 0.44525 1.45175 1.92904 -7.45454 0.0025 
139 1 0.0833066 0.0191357 0.00285881 0 0 0 0.248842 -0.153267 -0.0010925 1.1824 -1.22829 0.0292336 1.97073 3.45873 -31.3539 0.0025 
140 1 0.0551222 0.11801 0.00256899 0 0 0 0.0142739 -0.00765794 -0.00104943 1.76425 -0.946522 -0.131205 -1.9613e-05 -3.65573e-05 3.93031e-16 0.0025 
141 1 0.0380593 0.0313201 0.00289497 0 0 0 -0.0212387 0.144988 0.0115932 2.7188 -0.142888 0.321315 -0.396871 -0.303457 3.05695 0.0025 
142 1 0.0882098 0.0632382 0.0026673 0 0 0 0.173802 0.0305873 -0.0165543 0.815945 -6.29686 -0.199852 2.1178 -0.00630103 19.2619 0.0025 
143 1 0.0586536 0.0788744 0.00252263 0 0 0 0.0185361 -0.172262 -0.0431535 -2.02646 -1.8993 -0.890481 2.79512 -3.25019 1.68104 0.0025 
144 1 0.0267863 0.0378285 0.00298246 0 0 0 -0.169866 0.154846 0.0210939 -8.03204 -3.8824 0.454534 -1.23288 5.14433 -44.502 0.0025 
145 1 0.126999 0.0667063 0.00270709 0 0 0 0 0 0 0 0 0 0 0 0 0.0025 
146 1 0.0952934 0.122838 0.00288432 0 0 0 -0.215956 -0.062062 0.0126772 -1.69142 -0.541619 0.0883044 -3.49285 4.13662 -38.9337 0.0025 
147 1 0.0691271 0.101798 0.00292183 0 0 0 0.142726 0.124183 0.0221492 -1.73257 8.72436 0.744475 4.35634 2.82441 -70.3324 0.0025 
148 1 0.0626125 0.118851 0.00264782 0 0 0 0.0710494 0.217375 -0.00454441 -0.337335 0.0491291 -0.104805 0.603477 -0.00134309 9.69779 0.0025 
149 1 0.0841731 0.0657209 0.00299191 0 0 0 -0.208602 0.0201162 0.0157106 -2.7406 -0.370637 0.326692 1.39487 -0.661913 8.38603 0.0025 
150 1 0.0407474 0.103931 0.00261836 0 0 0 -0.151845 0.0347724 -0.0142024 5.74957 1.57166 -0.619597 -3.50785 0.288698 28.7863 0.0025 
151 1 0.0614304 0.114097 0.00272759 0 0 0 0.1244 0.00141668 -0.00697595 2.22917 2.53873 -0.137303 -0.3317 -0.0437112 -7.14332 0.0025 
152 1 0.104276 0.051469 0.00295521 0 0 0 0.00689346 -0.00561197 0.0131386 0.0536416 0.995165 0.0996254 3.25622 0.545694 -42.0867 0.0025 
153 1 0.0580215 0.110972 0.00293171 0 0 0 -0.198698 -0.221536 0.01139 -3.13017 -3.62782 0.191869 -0.916447 -0.0577315 -16.9845 0.0025 
154 1 0.100139 0.0555767 0.00281916 0 0 0 -0.067568 -0.0377965 -0.000259064 0.757726 -1.23793 0.0134106 0.0284043 0.219537 7.55224 0.0025 
155 1 0.100495 0.128019 0.00302036 0 0 0 0.0255666 0.177364 0.0166834 0 0 0 -0.0152838 -0.175746 1.7639 0.0025 
156 1 0.0473992 0.0308229 0.00289096 0 0 0 -0.148444 -0.0291267 0.00597829 -1.37642 -2.33891 0.111457 -0.68841 -0.58958 -21.6137 0.0025 
157 1 0.075364 0.0843614 0.0028118 0 0 0 -0.0421852 0.120608 0.0213075 -3.38107 1.23901 0.198156 0.0088899 1.49334 -8.00289 0.0025 
158 1 0.102689 0.0879241 0.00272101 0 0 0 0.0500692 -0.0647929 -0.000834959 4.07155 -5.09412 -0.067225 -0.154869 -0.236216 9.03829 0.0025 
159 1 0.0874949 0.114971 0.00280207 0 0 0 0.164917 -0.0435204 -0.00502753 6.2388 -1.57349 -0.198968 0.948121 2.12878 12.743 0.0025 
160 1 0.124682 0.115678 0.00263652 0 0 0 0 0 0 0 0 0 0 0 0 0.0025 
161 1 0.0761205 0.0600662 0.00269933 0 0 0 -0.0662295 0.226269 0.00511548 5.9677 2.29993 0.48378 -0.17771 -1.66026 28.019 0.0025 
162 1 0.0227483 0.0321312 0.00297752 0 0 0 -0.000442696 -0.0163559 0.0077945 0.197039 0.347367 0.468071 -0.261899 1.03697 9.45929 0.0025 
163 1 0.127103 0.0931433 0.0028591 0 0 0 -0.00855269 -0.0446281 0.0021122 0.2691 -2.02522 0.0433256 0.862087 2.90872 -12.2021 0.0025 
164 1 0.0475933 0.110324 0.00272517 0 0 0 0.0503638 0.178859 -0.0070279 4.43722 1.23 0.0918343 -1.61105 -1.79815 -21.6264 0.0025 
165 1 0.0527796 0.0229609 0.0028384 0 0 0 -0.102212 -0.148759 0.000425943 -2.94342 -4.06263 0.026429 0.528306 -0.346197 5.94964 0.0025 
166 1 0.0853287 0.0318266 0.0025719 0 0 0 0.0321824 0.0325908 -0.00197917 1.08897 0.490105 -0.130651 -0.0885835 0.0487753 0.209231 0.0025 
167 1 0.0312303 0.102198 0.00284697 0 0 0 0 0 0 0 0 0 0 0 0 0.0025 
168 1 0.0898394 0.0993901 0.002559 0 0 0 0.0262369 0.0601623 -0.0118116 -3.95182 3.03562 -0.394615 -0.023878 0.168673 4.39164 0.0025 
169 1 0.0958294 0.0705779 0.00294091 0 0 0 -0.160022 -0.211606 0.00513006 -0.210585 -0.549458 0.021747 0.736767 -1.17825 -24.3799 0.0025 
170 1 0.115141 0.0985036 0.0030365 0 0 0 0.0890216 -0.0735772 0.0163296 2.16416 -7.89656 0.121209 0.051752 0.511172 -12.7936 0.0025 
171 1 0.0797128 0.0223236 0.00299248 0 0 0 -0.0410926 0.187118 0.0187073 -2.04478 1.05689 -0.00378147 1.14711 2.49153 -20.9813 0.0025 
172 1 0.0690212 0.0920472 0.00285541 0 0 0 -0.00272535 0.00301491 0.000114971 -0.700592 0.775028 0.0297206 -4.08204e-07 -3.68999e-07 1.57873e-17 0.0025 
173 1 0.0200951 0.0659999 0.00260097 0 0 0 0 0 0 0 0 0 0 0 0 0.0025 
174 1 0.0664664 0.121829 0.0028336 0 0 0 -0.124017 0.0157354 -0.000584002 -4.91992 1.64281 0.0196336 -0.0497075 -0.760826 -1.46053 0.0025 
175 1 0.111821 0.083385 0.00290449 0 0 0 -0.198618 -0.0320887 0.0205806 3.54762 -6.11874 0.745027 -2.01673 -3.37203 -42.0659 0.0025 
176 1 0.109527 0.0460882 0.00293866 0 0 0 -0.0215325 0.363006 0.0236065 0.0658025 9.46806 0.682817 4.39281 3.62722 4.32276 0.0025 
177 1 0.106416 0.113692 0.00301929 0 0 0 -0.0136768 0.065842 0.0261022 -0.995683 -3.08747 0.505918 -1.25923 1.37079 16.9317 0.0025 
178 1 0.0950964 0.0886571 0.00273782 0 0 0 0.0174402 -0.134703 0.00495287 -0.944592 -5.32593 0.131595 -0.520634 0.181782 4.86294 0.0025 
179 1 0.101602 0.118615 0.00265952 0 0 0 0.0290405 -0.0792394 0.00193773 1.30585 -5.06395 0.141958 -1.39301 -0.550813 -1.15561 0.0025 
180 1 0.030338 0.0597761 0.00263077 0 0 0 0.0143794 -0.131229 -0.010902 0.883044 6.09475 -0.355238 -0.83163 -0.0494124 -2.70626 0.0025 
181 1 0.126863 0.0813428 0.00268514 0 0 0 0.0537699 -0.182541 -0.00198183 0 0 0 -0.0121596 -0.000540737 -0.257937 0.0025 
182 1 0.0411547 0.0578843 0.00267071 0 0 0 -0.0529318 0.0436024 0.000396681 -2.88033 4.33129 -0.0735942 -2.80829 -0.339803 26.1862 0.0025 
183 1 0.0203196 0.10776 0.00250573 0 0 0 0 0 0 0 0 0 0 0 0 0.0025 
184 1 0.0269946 0.0807291 0.00281958 0 0 0 0.0658447 -0.0524668 0.00867209 3.90984 -1.34553 0.348186 0.303153 -3.53216 13.4744 0.0025 
185 1 0.0913463 0.0795494 0.00289925 0 0 0 -0.148006 0.0396972 0.0100736 3.19393 -5.05868 0.282268 -0.875984 -0.158997 -17.0999 0.0025 
186 1 0.0650153 0.0297754 0.00257608 0 0 0 0 0 0 0 0 0 0 0 0 0.0025 
187 1 0.105506 0.0305024 0.00288389 0 0 0 0.03876 -0.09524 0.00441063 3.65783 -6.15145 0.332738 -0.926209 -0.211008 4.91924 0.0025 
188 1 0.116047 0.0875813 0.00277321 0 0 0 -0.0377604 0.209148 0.000486821 0.191596 0.480214 0.00884659 -2.04918 -0.312123 -15.8464 0.0025 
189 1 0.12766 0.107659 0.0027548 0 0 0 0.150133 0.103279 -0.00759028 0 0 0 0.0441773 -0.0642189 1.74723e-12 0.0025 
190 1 0.0893611 0.0915352 0.00262633 0 0 0 0.080331 0.0879311 0.0013607 2.41979 3.8026 0.081895 0.199693 -0.0464065 -6.19211 0.0025 
191 1 0.0633222 0.063545 0.00299873 0 0 0 0 0 0 0 0 0 0 0 0 0.0025 
192 1 0.0818358 0.12727 0.00269498 0 0 0 0.0245385 0.258275 0.00781311 4.89065 6.59705 0.2926 0.567813 -1.77182 19.0508 0.0025 
193 1 0.0685655 0.115827 0.00290436 0 0 0 0 0 0 0 0 0 0 0 0 0.0025 
194 1 0.0603158 0.0718491 0.00274778 0 0 0 0.154373 -0.124873 -0.00582805 4.95591 -3.91947 -0.194049 0.463616 0.213953 7.70425 0.0025 
195 1 0.121305 0.0469853 0.00301117 0 0 0 0.0183769 0.167937 0.0143501 -0.209672 1.41646 0.111542 0.0963921 1.94714 -22.2307 0.0025 
196 1 0.0625725 0.125964 0.00258809 0 0 0 0 0 0 0 0 0 0 0 0 0.0025 
197 1 0.0348647 0.0206608 0.00294612 0 0 0 0 0 0 0 0 0 0 0 0 0.0025 
198 1 0.10149 0.0246563 0.00252254 0 0 0 0.208319 0.0448338 -0.0175529 0.02439 0.251536 -0.0506693 0.202516 1.61206 6.09969 0.0025 
199 1 0.0293736 0.0553735 0.0029768 0 0 0 -0.0785413 0.238366 0.00791021 -2.23751 -0.453345 0.473783 -1.50683 -0.225463 -3.08323 0.0025 
200 1 0.0549414 0.0933806 0.00291516 0 0 0 0.0128307 0.0791782 0.00270113 0.809384 5.46419 0.191596 0.383447 -0.10347 1.23263 0.0025 
201 1 0.114243 0.0474164 0.00273504 0 0 0 0.0505972 -0.191058 -0.00248532 1.21039 0.635111 -0.0281069 -0.0910816 0.0651772 -3.28314 0.0025 
202 1 0.0501571 0.0535033 0.00264558 0 0 0 0.00222404 -0.122702 -0.00627362 0.327715 0.0619296 0.00168271 -0.17111 0.703503 2.9745 0.0025 
203 1 0.118821 0.105517 0.00289545 0 0 0 -0.00791812 -0.0393291 -0.00031543 -1.14718 -2.87693 -0.0348978 0.0776892 -0.331597 -7.72964 0.0025 
204 1 0.103708 0.076227 0.0027991 0 0 0 -0.0344386 0.159843 0.00306275 2.18339 3.75592 0.0627818 0.152928 0.241296 -1.61894 0.0025 
205 1 0.114167 0.0736812 0.00264571 0 0 0 0.210653 0.0546813 -0.00816188 1.36053 0.532457 -0.0204557 -0.153026 0.421101 -0.99833 0.0025 
206 1 0.0773769 0.0375346 0.00265288 0 0 0 0.0176946 0.104746 -0.00646369 1.40434 5.0322 -0.183897 0.38787 -0.358985 -25.8038 0.0025 
207 1 0.050293 0.0686602 0.00257807 0 0 0 -0.098434 -0.10507 -0.0200814 6.72849 -5.33934 -0.612149 1.79194 1.66388 -15.2511 0.0025 
208 1 0.12339 0.104706 0.00300035 0 0 0 -0.0962379 -0.107231 0.00828967 4.60055 -0.405914 0.0649106 0.0685854 -0.418318 -3.89246 0.0025 
209 1 0.0254511 0.0884879 0.00255293 0 0 0 0 0 0 0 0 0 0 0 0 0.0025 
210 1 0.0842945 0.0838602 0.00260335 0 0 0 -0.108647 -0.0733417 0.00128259 -2.16911 4.93081 -0.00468978 0.0707037 0.0476693 9.88102 0.0025 
211 1 0.0340132 0.0282381 0.0030092 0 0 0 0.122417 0.143287 0.00970496 2.18636 2.62084 0.156786 0.234386 -0.17768 -0.311402 0.0025 
212 1 0.0364623 0.0527805 0.00287683 0 0 0 -0.149176 0.0700932 0.00906608 -2.67644 -8.34655 0.455386 -5.54485 -1.84808 -6.66064 0.0025 
213 1 0.0916596 0.0471165 0.00268933 0 0 0 -0.0392193 0.00496531 -0.00522985 -5.91289 2.07435 0.117829 -0.155823 -0.76977 2.75643 0.0025 
214 1 0.0725463 0.109784 0.00260261 0 0 0 0.0338402 0.033504 -0.00247084 2.94208 2.83558 -0.216008 -0.350247 0.19095 -2.21701 0.0025 
215 1 0.0804288 0.0340309 0.0029902 0 0 0 0.0781792 -0.127357 0.00972865 2.46283 -3.64073 0.301142 -1.16561 0.751144 19.2983 0.0025 
216 1 0.0188669 0.113573 0.00250066 0 0 0 0 0 0 0 0 0 0 0 0 0.0025 
217 1 0.0634129 0.0465509 0.00246211 0 0 0 0.205661 -0.278563 -0.0222029 0.119524 1.40501 -0.117794 1.57549 3.77057 20.0439 0.0025 
218 1 0.0374031 0.100993 0.00298815 0 0 0 -0.106853 -0.0826321 0.00907509 -5.3599 -4.2253 0.480623 -0.450644 1.08258 4.54084 0.0025 
219 1 0.120575 0.125482 0.00288204 0 0 0 0.0513385 -0.0104968 0.00116402 3.58288 -0.716551 0.0789453 -0.00586719 -0.0589816 -0.271437 0.0025 
220 1 0.110979 0.109699 0.00281876 0 0 0 -0.157185 0.209498 0.00546163 -1.59983 4.36851 0.134685 2.56038 0.310624 -16.0883 0.0025 
221 1 0.0538139 0.0787422 0.0029611 0 0 0 -0.229855 0.079353 0.0117654 -1.74996 -0.93036 0.0696377 -3.56692 0.410418 -44.3283 0.0025 
222 1 0.0508636 0.120295 0.00288569 0 0 0 -0.0142739 0.00765794 0.00104943 -1.76425 0.946522 0.131205 -1.9613e-05 -3.65573e-05 3.93031e-16 0.0025 
223 1 0.0512441 0.0351504 0.00258538 0 0 0 -0.226305 -0.0277127 -0.00920483 -4.06393 -3.11363 -0.133898 -1.9275 2.50261 4.19447 0.0025 
224 1 0.0885806 0.0532166 0.00256309 0 0 0 0.0191683 0.228744 -0.015041 0.498321 3.47203 -0.187599 -4.23592 -2.27779 -40.3286 0.0025 
225 1 0.0875163 0.0254588 0.0027888 0 0 0 -0.00230522 0.0100589 -0.000112212 -0.948465 1.83358 -0.028915 -0.0323017 -0.0034471 -0.445151 0.0025 
226 1 0.0845107 0.0705189 0.00264062 0 0 0 -0.0979548 -0.0546278 -0.00492701 0.0728504 -0.9496 -0.173156 -0.998908 0.293036 -22.4108 0.0025 
227 1 0.0587365 0.0603166 0.00300723 0 0 0 0.0247608 0.158266 0.0122978 1.02645 3.13338 0.267936 -0.171332 -0.615376 8.02368 0.0025 
228 1 0.119204 0.0669029 0.00248237 0 0 0 0.139262 0.114639 -0.0110556 0 0 0 -0.114125 -0.0555128 -1.87927 0.0025 
229 1 0.0453349 0.0540549 0.00302496 0 0 0 -0.124486 -0.105433 0.029031 7.55809 -3.51235 0.576896 -3.45892 -1.68992 -59.0797 0.0025 
230 1 0.058132 0.100429 0.00263517 0 0 0 -0.0566728 0.104665 -0.0109711 3.62585 1.75375 -0.504642 1.87356 2.8101 -1.90794 0.0025 
231 1 0.125347 0.0994502 0.00270106 0 0 0 0.188231 0.252332 -0.0111485 0.142523 0.120658 0.0325958 -4.56195 4.80447 29.3424 0.0025 
232 1 0.0357343 0.12621 0.00245378 0 0 0 -0.0171073 0.323343 -0.0249811 -0.109339 4.03923 -0.340155 -0.303581 1.04211 -44.3612 0.0025 
233 1 0.10602 0.108917 0.00252093 0 0 0 -0.0135468 -0.195676 -0.0184407 0.846408 -0.972328 -0.177292 0.37803 0.0353348 -1.0885 0.0025 
234 1 0.119631 0.0337088 0.00273971 0 0 0 0.00248172 -0.123501 0.0117088 -6.42367 2.3723 0.444518 0.612841 0.479346 -16.7612 0.0025 
235 1 0.117363 0.119156 0.0027514 0 0 0 0 0 0 0 0 0 0 0 0 0.0025 