# vtk DataFile Version 4.0
Generated by LIGGGHTS
ASCII
DATASET POLYDATA
POINTS 415 float
0.0506443 0.0215347 0.00297816 0.0653868 0.0210041 0.00250213 0.070122 0.0205842 0.0030342 
0.0914198 0.0211854 0.00249389 0.120954 0.0208492 0.00258717 0.0259692 0.0228847 0.00270894 
0.0306801 0.0233813 0.00304767 0.0367213 0.0232084 0.00294612 0.0445225 0.0225361 0.00262534 
0.0602273 0.0230419 0.00286125 0.0746907 0.0234229 0.00244944 0.0830534 0.0215975 0.00285879 
0.0871999 0.0231814 0.00286859 0.100955 0.0222712 0.00261786 0.107574 0.0216137 0.00276829 
0.116114 0.023187 0.00249801 0.0214672 0.0254152 0.00250339 0.0536217 0.0251915 0.00283923 
0.0708545 0.0254581 0.00287867 0.0793315 0.0249967 0.00301302 0.0909977 0.0263005 0.00282853 
0.0957301 0.0256927 0.00307788 0.104399 0.0254901 0.00295136 0.11152 0.0245462 0.00285868 
0.12374 0.024794 0.00277825 0.028 0.0274524 0.00295725 0.0330211 0.0270241 0.00270913 
0.0467819 0.0270418 0.00288641 0.0661771 0.026869 0.00269307 0.0867705 0.0278231 0.00278775 
0.100303 0.027076 0.00250064 0.119201 0.0268517 0.00278762 0.0239254 0.0298542 0.00261388 
0.0360615 0.0305935 0.00302206 0.0413944 0.0288312 0.00262234 0.0560097 0.0291503 0.00287537 
0.0605111 0.0302152 0.00250451 0.073752 0.0295643 0.00276201 0.0816369 0.0304069 0.00274453 
0.0916733 0.0311215 0.00291723 0.0963854 0.0305257 0.00254856 0.107861 0.0294059 0.00276851 
0.11272 0.0297851 0.00253117 0.116947 0.0311677 0.00261114 0.12323 0.0297104 0.00257454 
0.0397887 0.0334945 0.00291179 0.0484908 0.0327973 0.00289861 0.05331 0.0323697 0.00272507 
0.0654052 0.0318796 0.00257608 0.0847692 0.0338537 0.00256781 0.0995032 0.0334654 0.00259526 
0.104025 0.0323844 0.00289379 0.121144 0.033631 0.00248401 0.0251978 0.0341114 0.002993 
0.030877 0.0348916 0.00288585 0.0356874 0.0353181 0.00258641 0.0451624 0.0356273 0.00307655 
0.0594865 0.0345229 0.00258952 0.0699683 0.0340427 0.00263767 0.0754733 0.0341065 0.00278121 
0.0801818 0.0357503 0.00300448 0.108451 0.0343244 0.00253309 0.117272 0.0355196 0.00275912 
0.12543 0.036092 0.00278464 0.0243756 0.0385547 0.00264047 0.0416337 0.0379553 0.00242027 
0.0520186 0.0369315 0.00257364 0.0640216 0.0366788 0.00298341 0.0724247 0.0386101 0.00249698 
0.0867806 0.037709 0.00250397 0.0915451 0.0381292 0.00292102 0.0979632 0.0381823 0.00289012 
0.102612 0.036623 0.0026133 0.112675 0.0367512 0.00264044 0.120702 0.0385216 0.0026769 
0.0287684 0.0396289 0.00301425 0.033022 0.0391132 0.00264887 0.037476 0.0397563 0.00308601 
0.0476836 0.0393775 0.0026421 0.0553375 0.0401321 0.00253162 0.0599961 0.0391808 0.00313185 
0.0676514 0.039655 0.00268675 0.0771883 0.0394219 0.0026435 0.103415 0.0408157 0.00286969 
0.107513 0.039038 0.00280421 0.116537 0.0398642 0.00259544 0.125005 0.0407447 0.00277816 
0.0220448 0.042235 0.00257007 0.0499885 0.0431121 0.00249501 0.0639058 0.0431321 0.00276692 
0.0807651 0.0426189 0.00272431 0.0864662 0.0421422 0.00302529 0.0932121 0.0426984 0.00291516 
0.108487 0.0436768 0.00246455 0.112545 0.0417196 0.00256466 0.0291298 0.0438772 0.00261159 
0.0343521 0.0439943 0.00293349 0.0397878 0.0447558 0.0025786 0.0459342 0.0459387 0.00287431 
0.0541535 0.0443492 0.00270919 0.0588431 0.0450123 0.0029419 0.0679013 0.0454846 0.00293289 
0.076002 0.0442185 0.00250567 0.0988507 0.0444025 0.002506 0.104122 0.0449173 0.00306948 
0.117435 0.043919 0.00255592 0.122386 0.0445734 0.00264775 0.0227676 0.0467793 0.00284841 
0.0311012 0.0479285 0.00262598 0.0543314 0.048479 0.00302668 0.0640687 0.0476003 0.00243342 
0.0721781 0.0468952 0.00266056 0.0804238 0.0481686 0.00265499 0.0844411 0.0461053 0.00246805 
0.0906569 0.0484023 0.00268502 0.0950933 0.0470233 0.00262923 0.101211 0.0483591 0.00264655 
0.107717 0.0478919 0.00297336 0.118974 0.0484518 0.00302829 0.0360446 0.0489596 0.00279902 
0.040337 0.0495698 0.00304207 0.0450686 0.050435 0.00246356 0.0498743 0.0492647 0.00253779 
0.0594416 0.0493135 0.00280545 0.0703661 0.0507786 0.00247106 0.0862456 0.050046 0.00308172 
0.112321 0.0484745 0.0027315 0.0268995 0.0513414 0.00291759 0.0325251 0.0521743 0.00293895 
0.0560107 0.0529475 0.00267236 0.0659059 0.0521935 0.0027415 0.0755492 0.0516443 0.002644 
0.0957893 0.0517327 0.00296609 0.102766 0.0525396 0.00297083 0.111215 0.0532619 0.00280291 
0.124303 0.0513925 0.00289597 0.0380377 0.0537411 0.00289272 0.0423867 0.0544248 0.00255892 
0.0466454 0.054832 0.00306519 0.0512805 0.0543183 0.00263848 0.0714567 0.0550605 0.00288348 
0.0806569 0.0536644 0.00286502 0.0878527 0.0544666 0.00254467 0.0936685 0.0559448 0.00274012 
0.10744 0.0556199 0.00281502 0.115491 0.0548343 0.00279948 0.0211018 0.055977 0.00270709 
0.0313806 0.0564604 0.00299349 0.0372604 0.0581157 0.00279203 0.055067 0.0573127 0.00248259 
0.059495 0.0562658 0.00262222 0.0647984 0.0568778 0.00267835 0.0755553 0.0565099 0.0024409 
0.098759 0.0563702 0.00281909 0.103469 0.0572941 0.00284501 0.111441 0.0582152 0.00275251 
0.120447 0.0564897 0.00274762 0.0226484 0.0602992 0.00272098 0.0324436 0.0603789 0.00261241 
0.0426228 0.0587059 0.00267051 0.0471813 0.0596418 0.00296421 0.0759895 0.0609494 0.00271201 
0.0810393 0.059901 0.00294817 0.0855675 0.0591948 0.00292093 0.0907568 0.0599541 0.0025697 
0.0960772 0.0602798 0.0027827 0.115869 0.0604861 0.00247359 0.123661 0.0599023 0.00286964 
0.027618 0.0608562 0.00248144 0.0404213 0.0622975 0.00250326 0.0594726 0.0611367 0.00302366 
0.0684734 0.0608919 0.00306891 0.101801 0.0616556 0.00266065 0.107783 0.0621874 0.00298036 
0.0321493 0.0655428 0.00289708 0.0360634 0.0633814 0.00254065 0.054251 0.0648713 0.00251141 
0.0637944 0.0640064 0.00299873 0.0730763 0.0638356 0.00245438 0.0876442 0.0636565 0.00264647 
0.0918954 0.065317 0.00285199 0.112703 0.0644446 0.00290175 0.12075 0.0635888 0.00269836 
0.0226696 0.0663273 0.00260011 0.0371124 0.0675716 0.00300432 0.0431068 0.0658494 0.00284855 
0.0473663 0.0676794 0.00269028 0.0594236 0.0664445 0.00281268 0.0687513 0.0658133 0.00278955 
0.07606 0.0671776 0.00249464 0.0833843 0.0660786 0.00301321 0.0978099 0.0658443 0.00273781 
0.101622 0.067884 0.0025146 0.106043 0.0667134 0.00295384 0.117102 0.0673189 0.00246996 
0.124374 0.0670139 0.00270709 0.0513997 0.0687119 0.00254844 0.0559589 0.0702859 0.00280331 
0.0653047 0.0689062 0.00268357 0.0705552 0.07048 0.00252007 0.0880463 0.0681462 0.00273605 
0.110346 0.0687569 0.00284134 0.120677 0.0703814 0.00275248 0.0227623 0.0708415 0.00290181 
0.0283279 0.0717881 0.00275345 0.0356417 0.0721733 0.00251855 0.0426849 0.0712972 0.002761 
0.0493516 0.0726238 0.00300041 0.0611556 0.0717294 0.00273917 0.0785191 0.0714692 0.00256306 
0.0838492 0.0705862 0.00263247 0.0887497 0.0727047 0.0025042 0.0945467 0.0704653 0.00294676 
0.103323 0.0717516 0.00268439 0.10773 0.0726173 0.0028881 0.0322761 0.0750691 0.00270255 
0.0395299 0.0750705 0.00283806 0.0573646 0.0744749 0.0029143 0.067008 0.0732801 0.00258864 
0.0737074 0.0737222 0.00265648 0.0841857 0.0752124 0.0025997 0.0982767 0.0737563 0.00289573 
0.112412 0.0736954 0.00263588 0.117395 0.0744541 0.00252559 0.0233628 0.0753034 0.00307125 
0.0447524 0.0756911 0.002816 0.0495303 0.0773189 0.00280564 0.0633915 0.0765796 0.00275123 
0.0790924 0.0758957 0.00282932 0.0942297 0.0763734 0.00270684 0.102231 0.0762841 0.00280339 
0.122128 0.0766531 0.00275809 0.0252395 0.0792428 0.00251671 0.0293578 0.0802825 0.00283389 
0.0378543 0.0792157 0.00280862 0.0441045 0.0801926 0.00285174 0.054482 0.0785387 0.00297457 
0.0593505 0.0784067 0.00246425 0.0661272 0.0801373 0.00262569 0.0703857 0.0779943 0.0025199 
0.0751801 0.0787396 0.00295457 0.0858892 0.0793768 0.00259227 0.0903573 0.0792036 0.00291502 
0.0984633 0.0789148 0.00259663 0.111291 0.0781413 0.00284124 0.0574734 0.0824002 0.0030852 
0.0794957 0.0817497 0.00248271 0.101302 0.082055 0.00299818 0.105783 0.0812346 0.00253056 
0.114443 0.082033 0.00285289 0.119234 0.0824775 0.00247578 0.124309 0.0807605 0.00268272 
0.0245237 0.0836332 0.00277438 0.0328221 0.0832404 0.00257396 0.0401753 0.0832854 0.00271421 
0.0477963 0.0843408 0.00284765 0.0523962 0.084019 0.00273382 0.0650956 0.0848906 0.00276656 
0.0704008 0.0829559 0.00254278 0.0751833 0.083939 0.002837 0.0836284 0.0833181 0.00260489 
0.0887037 0.0833926 0.00276907 0.0957735 0.0828876 0.00285031 0.109783 0.0827852 0.00293691 
0.0227068 0.0874453 0.0029241 0.0435297 0.0866965 0.00297487 0.0592417 0.0865553 0.00283861 
0.0723639 0.0876422 0.00271471 0.101361 0.087056 0.00271906 0.109003 0.087238 0.00261146 
0.113913 0.0870989 0.00277379 0.118758 0.0873415 0.00262287 0.123009 0.0856643 0.00275 
0.0277656 0.0877359 0.00255293 0.033714 0.0885539 0.00276369 0.0384373 0.0887874 0.00298594 
0.0501551 0.0884391 0.0029866 0.0550241 0.0881708 0.00270918 0.0630918 0.0889356 0.00289016 
0.0852625 0.0878462 0.00256023 0.0940137 0.0876783 0.00274458 0.0980711 0.0897633 0.00274209 
0.0209639 0.0908245 0.00264178 0.0558458 0.0925497 0.00292089 0.0691973 0.0911418 0.00285626 
0.0796037 0.09108 0.00287755 0.0886598 0.0907695 0.00262915 0.092728 0.0922304 0.00250414 
0.106651 0.090944 0.00280094 0.116429 0.0921126 0.00254228 0.124462 0.0920939 0.00286196 
0.0225384 0.095054 0.00257686 0.0283599 0.0940528 0.00271698 0.0496462 0.092897 0.00301355 
0.0625619 0.0932164 0.00305461 0.0734141 0.0938759 0.00303786 0.0837878 0.0932114 0.00259689 
0.0967561 0.0943708 0.00289298 0.101699 0.0934845 0.00282729 0.11184 0.0924765 0.002611 
0.120596 0.0940024 0.00315225 0.0333287 0.0955433 0.00255122 0.0418182 0.0952679 0.00274359 
0.0466807 0.0962964 0.00236801 0.0627813 0.0971039 0.00255232 0.0688389 0.0959428 0.00258261 
0.077792 0.0954003 0.00289531 0.0929007 0.0969498 0.00265018 0.108031 0.0960938 0.00252902 
0.113213 0.0970989 0.00305634 0.0217969 0.099812 0.00288902 0.0389533 0.099489 0.00300456 
0.0549412 0.0971832 0.00291312 0.0588487 0.0992177 0.00261549 0.0732177 0.0985179 0.0026554 
0.0803158 0.099312 0.00273717 0.0845598 0.0978137 0.00282704 0.0889967 0.0982128 0.00254052 
0.0984001 0.0984664 0.00277989 0.102893 0.099723 0.00267557 0.123004 0.0984358 0.00268885 
0.0267808 0.10042 0.00260534 0.0332637 0.100779 0.00284697 0.0467625 0.100908 0.00294966 
0.0521596 0.100692 0.00291166 0.065076 0.100545 0.00280013 0.0694462 0.100606 0.00295523 
0.0758402 0.102577 0.00275869 0.112264 0.101451 0.00302259 0.0422332 0.102469 0.00259512 
0.0499366 0.104422 0.00304949 0.0563386 0.103074 0.00288851 0.0625152 0.10458 0.00278269 
0.0819751 0.103691 0.00297843 0.0881539 0.103351 0.00253426 0.0960384 0.102399 0.00258787 
0.101057 0.104083 0.0025172 0.108019 0.103524 0.00249437 0.116567 0.103853 0.0028945 
0.120906 0.103043 0.00301056 0.0228838 0.106071 0.00250573 0.0290171 0.106054 0.00280543 
0.0363622 0.106721 0.00249797 0.0411273 0.106829 0.00284592 0.0454928 0.105959 0.00246933 
0.0693127 0.105039 0.00292915 0.094095 0.107295 0.00294803 0.104413 0.106975 0.00249863 
0.113767 0.107247 0.00287921 0.125164 0.106085 0.00274645 0.0489414 0.108714 0.00271885 
0.0585095 0.108854 0.00294609 0.0659611 0.108243 0.0024826 0.0726499 0.108074 0.00259659 
0.0828608 0.108355 0.00264647 0.0893247 0.10826 0.00260419 0.108963 0.108182 0.0028266 
0.119965 0.109299 0.00252384 0.0215018 0.1116 0.00250066 0.0282894 0.110721 0.00267009 
0.0343134 0.110601 0.0025007 0.0621444 0.11212 0.00271882 0.0984706 0.110756 0.00256386 
0.104765 0.111744 0.00305385 0.114396 0.111793 0.00263024 0.0390413 0.11246 0.00277505 
0.0437836 0.112978 0.00274662 0.0489719 0.112962 0.00267681 0.0687827 0.113745 0.00290436 
0.0741626 0.114106 0.002595 0.0781617 0.112106 0.00283124 0.0825832 0.113483 0.00307356 
0.0870458 0.112865 0.002794 0.0920668 0.113059 0.00266473 0.109642 0.114373 0.00265641 
0.122171 0.113607 0.00263661 0.0251371 0.116138 0.00255134 0.0319511 0.11488 0.00272942 
0.0378011 0.116647 0.00270169 0.0560378 0.115798 0.00256559 0.0631713 0.11684 0.00264045 
0.100239 0.116248 0.00266367 0.104792 0.116318 0.00264596 0.115206 0.116912 0.0027514 
0.0300695 0.118938 0.00302058 0.0450806 0.118836 0.00249472 0.0518975 0.11802 0.00288909 
0.0666057 0.11951 0.00283416 0.070941 0.118953 0.00292624 0.0754356 0.118968 0.00255894 
0.0812408 0.118051 0.00257771 0.085539 0.118963 0.00251408 0.0900786 0.117301 0.00284823 
0.0407363 0.120559 0.00250558 0.0588327 0.121514 0.00250217 0.0788494 0.12154 0.00251223 
0.0898705 0.121835 0.00248793 0.0939937 0.120341 0.00290002 0.0989769 0.120542 0.00239033 
0.020892 0.123098 0.00286828 0.0259272 0.124293 0.00245296 0.0330997 0.122948 0.00280222 
0.0375394 0.12401 0.00242211 0.0435803 0.12463 0.00275033 0.048492 0.121995 0.00257651 
0.0541741 0.122755 0.00263867 0.063098 0.123394 0.00258832 0.0858182 0.123713 0.00274836 
0.104876 0.122072 0.00271116 0.109622 0.123468 0.00295431 0.113954 0.12391 0.00275917 
0.118371 0.122908 0.00288447 0.0756127 0.124829 0.00250431 0.0814738 0.124971 0.00270654 
0.0991831 0.125526 0.00303923 
VERTICES 415 830
1 0 
1 1 
1 2 
1 3 
1 4 
1 5 
1 6 
1 7 
1 8 
1 9 
1 10 
1 11 
1 12 
1 13 
1 14 
1 15 
1 16 
1 17 
1 18 
1 19 
1 20 
1 21 
1 22 
1 23 
1 24 
1 25 
1 26 
1 27 
1 28 
1 29 
1 30 
1 31 
1 32 
1 33 
1 34 
1 35 
1 36 
1 37 
1 38 
1 39 
1 40 
1 41 
1 42 
1 43 
1 44 
1 45 
1 46 
1 47 
1 48 
1 49 
1 50 
1 51 
1 52 
1 53 
1 54 
1 55 
1 56 
1 57 
1 58 
1 59 
1 60 
1 61 
1 62 
1 63 
1 64 
1 65 
1 66 
1 67 
1 68 
1 69 
1 70 
1 71 
1 72 
1 73 
1 74 
1 75 
1 76 
1 77 
1 78 
1 79 
1 80 
1 81 
1 82 
1 83 
1 84 
1 85 
1 86 
1 87 
1 88 
1 89 
1 90 
1 91 
1 92 
1 93 
1 94 
1 95 
1 96 
1 97 
1 98 
1 99 
1 100 
1 101 
1 102 
1 103 
1 104 
1 105 
1 106 
1 107 
1 108 
1 109 
1 110 
1 111 
1 112 
1 113 
1 114 
1 115 
1 116 
1 117 
1 118 
1 119 
1 120 
1 121 
1 122 
1 123 
1 124 
1 125 
1 126 
1 127 
1 128 
1 129 
1 130 
1 131 
1 132 
1 133 
1 134 
1 135 
1 136 
1 137 
1 138 
1 139 
1 140 
1 141 
1 142 
1 143 
1 144 
1 145 
1 146 
1 147 
1 148 
1 149 
1 150 
1 151 
1 152 
1 153 
1 154 
1 155 
1 156 
1 157 
1 158 
1 159 
1 160 
1 161 
1 162 
1 163 
1 164 
1 165 
1 166 
1 167 
1 168 
1 169 
1 170 
1 171 
1 172 
1 173 
1 174 
1 175 
1 176 
1 177 
1 178 
1 179 
1 180 
1 181 
1 182 
1 183 
1 184 
1 185 
1 186 
1 187 
1 188 
1 189 
1 190 
1 191 
1 192 
1 193 
1 194 
1 195 
1 196 
1 197 
1 198 
1 199 
1 200 
1 201 
1 202 
1 203 
1 204 
1 205 
1 206 
1 207 
1 208 
1 209 
1 210 
1 211 
1 212 
1 213 
1 214 
1 215 
1 216 
1 217 
1 218 
1 219 
1 220 
1 221 
1 222 
1 223 
1 224 
1 225 
1 226 
1 227 
1 228 
1 229 
1 230 
1 231 
1 232 
1 233 
1 234 
1 235 
1 236 
1 237 
1 238 
1 239 
1 240 
1 241 
1 242 
1 243 
1 244 
1 245 
1 246 
1 247 
1 248 
1 249 
1 250 
1 251 
1 252 
1 253 
1 254 
1 255 
1 256 
1 257 
1 258 
1 259 
1 260 
1 261 
1 262 
1 263 
1 264 
1 265 
1 266 
1 267 
1 268 
1 269 
1 270 
1 271 
1 272 
1 273 
1 274 
1 275 
1 276 
1 277 
1 278 
1 279 
1 280 
1 281 
1 282 
1 283 
1 284 
1 285 
1 286 
1 287 
1 288 
1 289 
1 290 
1 291 
1 292 
1 293 
1 294 
1 295 
1 296 
1 297 
1 298 
1 299 
1 300 
1 301 
1 302 
1 303 
1 304 
1 305 
1 306 
1 307 
1 308 
1 309 
1 310 
1 311 
1 312 
1 313 
1 314 
1 315 
1 316 
1 317 
1 318 
1 319 
1 320 
1 321 
1 322 
1 323 
1 324 
1 325 
1 326 
1 327 
1 328 
1 329 
1 330 
1 331 
1 332 
1 333 
1 334 
1 335 
1 336 
1 337 
1 338 
1 339 
1 340 
1 341 
1 342 
1 343 
1 344 
1 345 
1 346 
1 347 
1 348 
1 349 
1 350 
1 351 
1 352 
1 353 
1 354 
1 355 
1 356 
1 357 
1 358 
1 359 
1 360 
1 361 
1 362 
1 363 
1 364 
1 365 
1 366 
1 367 
1 368 
1 369 
1 370 
1 371 
1 372 
1 373 
1 374 
1 375 
1 376 
1 377 
1 378 
1 379 
1 380 
1 381 
1 382 
1 383 
1 384 
1 385 
1 386 
1 387 
1 388 
1 389 
1 390 
1 391 
1 392 
1 393 
1 394 
1 395 
1 396 
1 397 
1 398 
1 399 
1 400 
1 401 
1 402 
1 403 
1 404 
1 405 
1 406 
1 407 
1 408 
1 409 
1 410 
1 411 
1 412 
1 413 
1 414 

POINT_DATA 415
FIELD FieldData 7
id 1 415 int
26 35 306 309 396 335 244 197 92 
327 267 139 98 247 412 334 47 165 
68 171 31 373 283 29 36 401 331 
253 395 225 198 30 252 211 312 49 
273 385 19 32 305 124 24 329 310 
141 156 103 186 166 257 187 66 162 
339 7 351 391 120 276 215 264 234 
376 130 256 223 301 268 362 109 259 
261 239 63 144 115 387 70 9 326 
71 206 369 58 367 354 121 403 134 
94 363 240 102 400 399 111 243 51 
258 72 21 17 25 384 75 338 250 
353 392 217 382 116 311 213 358 85 
176 195 356 342 6 95 64 96 113 
201 54 93 325 349 11 53 152 136 
294 212 38 229 202 322 8 224 308 
288 271 12 199 37 343 88 50 410 
154 315 286 77 307 180 182 413 161 
365 316 238 18 355 279 117 411 227 
245 4 324 269 289 137 191 314 142 
260 87 297 173 277 5 131 125 303 
108 149 378 128 296 228 145 207 254 
393 110 405 372 23 360 101 320 390 
27 194 290 226 40 169 236 366 46 
404 79 415 89 408 352 205 350 332 
99 16 270 3 248 204 107 55 184 
45 242 221 143 61 20 344 100 185 
15 129 383 73 317 379 91 280 181 
106 284 41 246 39 56 263 157 210 
287 33 175 97 274 251 28 158 10 
188 345 347 209 132 65 298 126 388 
386 178 293 262 200 172 78 190 22 
122 86 163 394 135 377 291 370 368 
321 340 237 397 337 285 57 406 281 
255 313 123 170 304 218 34 230 409 
69 112 168 282 381 231 275 167 1 
292 133 147 14 295 150 330 104 333 
62 323 328 60 336 203 208 183 302 
42 138 371 374 44 233 357 189 164 
153 84 214 265 90 220 299 216 361 
278 151 48 177 266 319 81 407 193 
414 318 402 159 114 380 160 83 2 
249 140 148 179 272 235 67 118 222 
174 127 300 52 398 13 241 59 348 
119 146 74 375 82 389 232 364 43 
346 196 359 105 76 341 219 80 192 
155 
type 1 415 int
1 1 1 1 1 1 1 1 1 
1 1 1 1 1 1 1 1 1 
1 1 1 1 1 1 1 1 1 
1 1 1 1 1 1 1 1 1 
1 1 1 1 1 1 1 1 1 
1 1 1 1 1 1 1 1 1 
1 1 1 1 1 1 1 1 1 
1 1 1 1 1 1 1 1 1 
1 1 1 1 1 1 1 1 1 
1 1 1 1 1 1 1 1 1 
1 1 1 1 1 1 1 1 1 
1 1 1 1 1 1 1 1 1 
1 1 1 1 1 1 1 1 1 
1 1 1 1 1 1 1 1 1 
1 1 1 1 1 1 1 1 1 
1 1 1 1 1 1 1 1 1 
1 1 1 1 1 1 1 1 1 
1 1 1 1 1 1 1 1 1 
1 1 1 1 1 1 1 1 1 
1 1 1 1 1 1 1 1 1 
1 1 1 1 1 1 1 1 1 
1 1 1 1 1 1 1 1 1 
1 1 1 1 1 1 1 1 1 
1 1 1 1 1 1 1 1 1 
1 1 1 1 1 1 1 1 1 
1 1 1 1 1 1 1 1 1 
1 1 1 1 1 1 1 1 1 
1 1 1 1 1 1 1 1 1 
1 1 1 1 1 1 1 1 1 
1 1 1 1 1 1 1 1 1 
1 1 1 1 1 1 1 1 1 
1 1 1 1 1 1 1 1 1 
1 1 1 1 1 1 1 1 1 
1 1 1 1 1 1 1 1 1 
1 1 1 1 1 1 1 1 1 
1 1 1 1 1 1 1 1 1 
1 1 1 1 1 1 1 1 1 
1 1 1 1 1 1 1 1 1 
1 1 1 1 1 1 1 1 1 
1 1 1 1 1 1 1 1 1 
1 1 1 1 1 1 1 1 1 
1 1 1 1 1 1 1 1 1 
1 1 1 1 1 1 1 1 1 
1 1 1 1 1 1 1 1 1 
1 1 1 1 1 1 1 1 1 
1 1 1 1 1 1 1 1 1 
1 
i 3 415 int
0 0 0 0 0 0 0 0 0 
0 0 0 0 0 0 0 0 0 
0 0 0 0 0 0 0 0 0 
0 0 0 0 0 0 0 0 0 
0 0 0 0 0 0 0 0 0 
0 0 0 0 0 0 0 0 0 
0 0 0 0 0 0 0 0 0 
0 0 0 0 0 0 0 0 0 
0 0 0 0 0 0 0 0 0 
0 0 0 0 0 0 0 0 0 
0 0 0 0 0 0 0 0 0 
0 0 0 0 0 0 0 0 0 
0 0 0 0 0 0 0 0 0 
0 0 0 0 0 0 0 0 0 
0 0 0 0 0 0 0 0 0 
0 0 0 0 0 0 0 0 0 
0 0 0 0 0 0 0 0 0 
0 0 0 0 0 0 0 0 0 
0 0 0 0 0 0 0 0 0 
0 0 0 0 0 0 0 0 0 
0 0 0 0 0 0 0 0 0 
0 0 0 0 0 0 0 0 0 
0 0 0 0 0 0 0 0 0 
0 0 0 0 0 0 0 0 0 
0 0 0 0 0 0 0 0 0 
0 0 0 0 0 0 0 0 0 
0 0 0 0 0 0 0 0 0 
0 0 0 0 0 0 0 0 0 
0 0 0 0 0 0 0 0 0 
0 0 0 0 0 0 0 0 0 
0 0 0 0 0 0 0 0 0 
0 0 0 0 0 0 0 0 0 
0 0 0 0 0 0 0 0 0 
0 0 0 0 0 0 0 0 0 
0 0 0 0 0 0 0 0 0 
0 0 0 0 0 0 0 0 0 
0 0 0 0 0 0 0 0 0 
0 0 0 0 0 0 0 0 0 
0 0 0 0 0 0 0 0 0 
0 0 0 0 0 0 0 0 0 
0 0 0 0 0 0 0 0 0 
0 0 0 0 0 0 0 0 0 
0 0 0 0 0 0 0 0 0 
0 0 0 0 0 0 0 0 0 
0 0 0 0 0 0 0 0 0 
0 0 0 0 0 0 0 0 0 
0 0 0 0 0 0 0 0 0 
0 0 0 0 0 0 0 0 0 
0 0 0 0 0 0 0 0 0 
0 0 0 0 0 0 0 0 0 
0 0 0 0 0 0 0 0 0 
0 0 0 0 0 0 0 0 0 
0 0 0 0 0 0 0 0 0 
0 0 0 0 0 0 0 0 0 
0 0 0 0 0 0 0 0 0 
0 0 0 0 0 0 0 0 0 
0 0 0 0 0 0 0 0 0 
0 0 0 0 0 0 0 0 0 
0 0 0 0 0 0 0 0 0 
0 0 0 0 0 0 0 0 0 
0 0 0 0 0 0 0 0 0 
0 0 0 0 0 0 0 0 0 
0 0 0 0 0 0 0 0 0 
0 0 0 0 0 0 0 0 0 
0 0 0 0 0 0 0 0 0 
0 0 0 0 0 0 0 0 0 
0 0 0 0 0 0 0 0 0 
0 0 0 0 0 0 0 0 0 
0 0 0 0 0 0 0 0 0 
0 0 0 0 0 0 0 0 0 
0 0 0 0 0 0 0 0 0 
0 0 0 0 0 0 0 0 0 
0 0 0 0 0 0 0 0 0 
0 0 0 0 0 0 0 0 0 
0 0 0 0 0 0 0 0 0 
0 0 0 0 0 0 0 0 0 
0 0 0 0 0 0 0 0 0 
0 0 0 0 0 0 0 0 0 
0 0 0 0 0 0 0 0 0 
0 0 0 0 0 0 0 0 0 
0 0 0 0 0 0 0 0 0 
0 0 0 0 0 0 0 0 0 
0 0 0 0 0 0 0 0 0 
0 0 0 0 0 0 0 0 0 
0 0 0 0 0 0 0 0 0 
0 0 0 0 0 0 0 0 0 
0 0 0 0 0 0 0 0 0 
0 0 0 0 0 0 0 0 0 
0 0 0 0 0 0 0 0 0 
0 0 0 0 0 0 0 0 0 
0 0 0 0 0 0 0 0 0 
0 0 0 0 0 0 0 0 0 
0 0 0 0 0 0 0 0 0 
0 0 0 0 0 0 0 0 0 
0 0 0 0 0 0 0 0 0 
0 0 0 0 0 0 0 0 0 
0 0 0 0 0 0 0 0 0 
0 0 0 0 0 0 0 0 0 
0 0 0 0 0 0 0 0 0 
0 0 0 0 0 0 0 0 0 
0 0 0 0 0 0 0 0 0 
0 0 0 0 0 0 0 0 0 
0 0 0 0 0 0 0 0 0 
0 0 0 0 0 0 0 0 0 
0 0 0 0 0 0 0 0 0 
0 0 0 0 0 0 0 0 0 
0 0 0 0 0 0 0 0 0 
0 0 0 0 0 0 0 0 0 
0 0 0 0 0 0 0 0 0 
0 0 0 0 0 0 0 0 0 
0 0 0 0 0 0 0 0 0 
0 0 0 0 0 0 0 0 0 
0 0 0 0 0 0 0 0 0 
0 0 0 0 0 0 0 0 0 
0 0 0 0 0 0 0 0 0 
0 0 0 0 0 0 0 0 0 
0 0 0 0 0 0 0 0 0 
0 0 0 0 0 0 0 0 0 
0 0 0 0 0 0 0 0 0 
0 0 0 0 0 0 0 0 0 
0 0 0 0 0 0 0 0 0 
0 0 0 0 0 0 0 0 0 
0 0 0 0 0 0 0 0 0 
0 0 0 0 0 0 0 0 0 
0 0 0 0 0 0 0 0 0 
0 0 0 0 0 0 0 0 0 
0 0 0 0 0 0 0 0 0 
0 0 0 0 0 0 0 0 0 
0 0 0 0 0 0 0 0 0 
0 0 0 0 0 0 0 0 0 
0 0 0 0 0 0 0 0 0 
0 0 0 0 0 0 0 0 0 
0 0 0 0 0 0 0 0 0 
0 0 0 0 0 0 0 0 0 
0 0 0 0 0 0 0 0 0 
0 0 0 0 0 0 0 0 0 
0 0 0 0 0 0 0 0 0 
0 0 0 0 0 0 0 0 0 
0 0 0 
v 3 415 double
-0.0134485 -0.0174818 0.000513205 -0.258224 -0.0928496 -0.0220827 0.15283 -0.27727 0.0290951 
0.141952 -0.0679263 -0.0118118 0.124275 -0.13857 7.26363e-05 -0.0267753 -0.216784 -0.00433405 
0.108702 -0.321149 0.0306255 0 0 0 0 0 0 
0 0 0 -0.100413 -0.0772401 -0.0259547 0.184894 -0.117187 0.00208728 
-0.0319482 0.000178847 0.0117379 -0.0586058 -0.0301945 -0.00743234 0.127271 -0.153052 -0.00627396 
-0.31531 -0.170362 -0.0107329 -0.337278 0.105751 -0.0153927 -0.155123 -0.22098 0.000898512 
0.0710702 0.0160395 0.0164738 -0.0509666 0.193179 0.018909 -0.292888 -0.168308 -0.00647806 
0.128912 -0.106375 0.0257201 0.0488281 0.159271 0.0182553 -0.00692658 0.00313799 0.000611151 
0.124709 -0.0547105 0.0040089 0.184482 -0.00290371 0.0171271 0.0696034 0.0615141 -0.0282416 
0 0 0 -0.298285 0.0920615 -0.00954417 -0.0964504 0.0970255 -0.0022823 
0.138842 0.0949087 -0.024197 -0.200743 0.0687307 0.0155382 -0.193196 -0.0255766 -0.0235797 
0.144593 0.165289 0.0145976 0.0764303 -0.198487 -0.0105203 0.0254895 -0.0613849 0.0208017 
0.299733 -0.290857 -0.0285346 0.210465 0.303416 -0.00617155 -0.0947133 -0.105405 0.00508164 
-0.216038 0.196354 0.0148811 0.033669 -0.16854 -0.017555 -0.199796 -0.0194435 0.00906476 
0.11027 -0.0233221 -0.0103711 0.0445231 -0.2808 -0.00483563 0.300551 -0.0136957 -0.00522838 
0.0904348 0.119308 0.0190109 -0.12331 -0.133573 0.00762047 0.0594759 -0.113821 -0.00366828 
0 0 0 0.0315463 -0.00714712 -0.00567338 -0.00109297 -0.122863 -0.0142179 
0.145375 -0.256547 0.014441 0.0414446 0.0957125 -0.0216491 0.00836739 0.00105796 0.0213246 
0.0447588 -0.255933 0.00193782 -0.0958225 0.0132005 -0.0138265 -0.0565481 -0.358404 0.0562882 
0.0743688 0.0689672 -0.00836929 0 0 0 0.084035 -0.156871 0.00764194 
0.129946 -0.199041 0.0159805 -0.15307 -0.340858 -0.00686747 -0.173565 -0.0721719 0.0245013 
0.170415 -0.0503017 0.00806218 -0.158806 0.0273717 -0.0163431 0.0411813 0.0249457 -0.0482605 
-0.296807 -0.0782624 -0.0121637 -0.0658993 -0.0776665 0.00693081 -0.390252 0.0239624 -0.0152703 
-0.0813683 -0.165181 -0.0346037 0.203067 -0.0156672 0.0139074 -0.0794794 0.19666 0.0111425 
0.0263131 -0.0347762 -0.0271293 0.185474 -0.0930217 0.00363355 0.143517 -0.0443086 -0.00115223 
-0.311739 -0.0122187 0.0387947 0.0353556 0.0536647 -0.0382014 0.138944 0.0812555 0.0374411 
-0.0719951 -0.0592441 -0.0162008 0.119748 0.175786 -0.0203625 0.262612 0.143771 0.0415603 
0.0846743 0.071578 -0.00678573 0.0130597 0.179071 -0.0104695 -0.0997308 -0.140232 0.00888482 
-0.027823 -0.240039 0.0111798 -0.0381941 -0.0897099 -0.00795902 0.218196 0.201638 0.00638759 
-0.158047 0.0521841 -0.0123927 -0.262598 0.275767 -0.0333992 -0.0652984 -0.14853 0.00179083 
0.166863 0.155397 0.002062 0.0477757 -0.0196282 0.045659 -0.0153637 -0.121863 0.00681896 
-0.0859717 0.121982 -0.0546494 0.0147875 0.0956352 -0.00841558 -0.140105 -0.183811 -0.0132371 
0.0292927 0.180218 0.00657578 -0.0430135 -0.397426 -0.0129912 0.023267 -0.0560126 0.00380782 
0.044423 0.0687703 -0.0143153 0.255915 0.00922769 0.0192007 0.0192935 -0.0712801 0.0198766 
0.332676 -0.278395 -0.00855539 0.0084369 -0.0740725 -0.00440246 -0.0474901 0.114481 0.0418898 
-0.0121942 0.159823 -0.0176247 0.151215 0.0488778 -0.000872618 0.0124599 0.112811 0.00616739 
-0.00289923 -0.0618573 -0.0170216 -0.0332529 0.194061 0.0394632 0.117638 -0.134448 -0.0326916 
0.099126 -0.0979331 0.00316624 -0.0874082 0.0308887 -5.36245e-06 -0.212552 -0.0730849 -0.0533166 
-0.120346 0.0362372 -0.00278609 0.294962 0.0227739 -0.0117718 -0.217711 -0.0183035 -0.0282036 
-0.0540076 0.543805 0.0394905 0.0154469 0.207899 0.0169051 0.0435961 -0.195377 -0.00691496 
0.104818 -0.139775 0.0348655 0.322901 -0.0982418 -0.0297234 -0.103863 0.00773819 -0.00710679 
-0.0670826 0.0280407 0.0079703 0.0953941 -0.0166666 -0.0372465 -0.0512993 0.127936 0.0555006 
0.11544 -0.155397 -0.00442956 0 0 0 0.00867857 0.145657 0.0179719 
-0.142619 0.227865 -0.00729828 -0.28669 0.240997 0.0179179 0.0173502 -0.281238 0.00547074 
0.0844893 -0.251776 0.0112911 0.0140806 0.0589349 0.0151835 0.0233747 -0.080098 0.000682522 
0 0 0 -0.239606 -0.106584 0.0199057 -0.176089 -0.267042 -0.0383576 
0.05858 -0.14898 0.0455229 0.0211306 -0.132535 -0.00690325 -0.0844098 0.26234 0.0381233 
0 0 0 0.0359483 0.303292 -0.0180517 -0.19585 0.0654972 -0.0110217 
-0.0608502 0.154825 0.000341798 0.18121 0.0930829 0.000328695 -0.0920124 -0.160424 0.00105601 
-0.143395 0.171638 0.0242805 -0.12291 0.418654 -0.00840997 -0.0977782 0.221356 -0.0250981 
0.382431 -0.154659 -0.00793261 -0.00298336 0.00812473 1.67032e-05 0.131482 0.0319225 -0.037849 
-0.0467233 -0.0646089 0.000155114 0.0625809 0.405826 0.000988692 0.0226593 0.0223618 -0.000383562 
-0.0829104 -0.100306 -0.00293504 -0.110594 0.128483 0.00764933 0.0370827 0.0644554 -0.0238545 
-0.0905172 0.0983987 -0.000462857 0.209379 0.183089 0.0171521 0.114343 0.230592 0.0187925 
0.115936 -0.0182514 0.00777951 -0.00382714 -0.212881 0.0080147 0.00560162 -0.00566156 -0.000306568 
-0.0733774 0.32251 -0.00166022 0.0750975 -0.200927 -0.0115026 0.164368 -0.0145074 0.00764289 
0.195241 0.0326641 -0.00895166 -0.0348851 0.0668386 -0.020892 0.0496628 0.21084 0.0170598 
-0.0837672 -0.351331 0.0223035 -0.00615149 0.0242118 -0.000929295 0.106857 -0.317457 0.00868364 
-0.124519 0.218882 0.015348 -0.27875 -0.123866 -0.0235262 0.106371 -0.225484 -0.00732464 
0 0 0 -0.0655524 0.00523689 -0.0206927 0.12555 -0.139778 -0.0211932 
0.0927112 0.0198337 0.00247287 -0.212957 0.0850756 0.0225417 -0.0815106 0.114742 -0.00470747 
-0.00215317 -0.0523891 -0.00312903 0.0132012 -0.0808689 0.0297076 -0.127049 0.131888 0.0196932 
0.166909 0.136088 -0.00192023 0 0 0 0.0942027 -0.0821025 0.00468323 
-0.0345709 -0.109549 -0.00291689 -0.243409 -0.0327358 0.0231489 -0.369261 -0.135496 0.00738578 
-0.211098 -0.0219905 -0.0433879 0.11803 0.0135942 0.0211803 0.120595 0.0937633 -0.0121039 
5.32052e-05 7.1347e-05 -3.71066e-07 0.110915 -0.177109 -0.0335981 0.0968567 -0.0821076 0.00260864 
-0.248699 0.135358 -0.00300148 0.067217 0.182255 -0.0128541 0.216756 -0.0188332 0.00432161 
0.292522 0.0142951 0.00243679 0.137082 -0.126445 0.00822105 -0.0958426 -0.378291 0.0061539 
0 0 0 -0.012275 -0.0438014 -0.0241248 0.0126699 -0.306451 -0.00318485 
-0.130434 0.134333 0.0348445 0.251173 -0.198856 -0.00951398 0.0439167 0.0222408 -0.00470361 
-0.0933401 -0.0335067 -0.010406 0.0505428 0.0998408 -0.00536147 -0.163266 -0.219842 0.00546982 
-0.194421 -0.00107724 -0.00951127 0.110364 0.13456 0.0167462 -0.215595 0.159431 0.00360009 
0.00128046 0.159294 0.00513339 -0.104016 0.11569 0.01645 -0.0551711 0.159997 -0.00162917 
0.04969 0.0548 0.00115856 0.0699554 0.241779 -0.00724952 0.0431357 -0.127454 0.00960745 
0.252544 0.0140104 -0.0103807 -0.118415 0.147321 -0.0071727 -0.137522 -0.302703 0.0447756 
-0.0748434 -0.0384268 7.03413e-06 0.235881 0.354521 -0.00374181 0.202167 -0.25411 0.0116145 
-0.115741 0.1914 0.0139501 0.0331662 -0.125921 -0.00684024 0.0804463 0.231305 0.00492914 
-0.0192565 -0.049107 0.000649109 -0.0316188 -0.0206405 -0.0644955 0.167228 -0.0810902 0.0176667 
-0.0813002 -0.0304739 0.00277486 -0.0415743 0.153743 0.00126691 -0.268249 0.0571008 0.0124942 
-0.0190604 -0.146986 -0.0629578 -0.209944 0.184747 -0.00159613 0.117636 -0.129194 -0.014991 
0.215971 0.0119101 0.0136992 -0.0406575 -0.195156 -0.00819745 -0.021421 -0.0950446 0.0195659 
0.0515171 0.191473 -0.0286909 0.0185791 -0.144409 0.00162992 -0.281319 0.0309456 0.0450242 
0.262804 -0.139482 -0.0173776 0.0373526 0.15221 0.0163111 -0.154939 -0.0625324 -0.0199096 
0.106905 -0.113648 0.0106845 0.302044 -0.0849004 -0.0178045 0.0730264 -0.133434 -0.00263094 
0.0900286 0.171813 -0.00226247 0.198255 0.151578 -0.0105413 0.0539851 0.105612 -0.0034355 
-0.114069 -0.0663516 -3.4435e-05 -0.0302958 -0.15176 -0.00206906 0.0449719 -0.066488 -0.00236445 
-0.256677 -0.0123002 -0.00715544 -0.0609631 0.10011 0.0238732 -0.0870476 0.0432589 0.0017458 
-0.0668864 0.236647 -0.00244782 -0.00691028 0.0123957 0.000420119 -0.0723142 -0.129712 0.038418 
0.0431318 -0.0585038 0.038926 0.00571037 0.0158869 0.0010073 0.118977 -0.0389693 0.000639612 
0.0139744 -0.00821965 -0.00175796 0.17095 -0.209848 -0.002864 -0.0528785 0.227852 -0.0207235 
-0.0408772 0.208717 0.00074274 -0.16563 0.141802 -0.00424526 0.134785 0.0750855 0.00664377 
0 0 0 -0.0570723 -0.0028215 -0.00262429 0.0570723 0.0028215 0.00262429 
0.0420139 -0.0146373 0.00356636 -0.228692 0.0246089 -0.0174126 0.245538 -0.0882245 -0.00119778 
-0.12283 0.0114254 -0.00411336 -0.047653 -0.276778 0.00700613 -0.0156188 -0.22116 -0.00158905 
-0.0547011 0.044458 -0.0337897 0.0340089 0.211503 0.00796791 -0.0390376 0.0335655 0.00187015 
-0.028575 -0.089551 0.00363826 0.0710477 0.154978 0.00409149 -0.141958 0.0314947 -0.0241545 
-0.065718 0.119618 0.00326237 0.0263089 -0.256492 -0.0250344 -0.0170403 -0.0847359 0.00317384 
0.122434 0.135202 -0.0176723 -0.183634 -0.0550818 0.00542821 0.251034 -0.230245 0.0323037 
0.0621421 -0.0955803 0.0574678 -0.0473457 -0.373945 0.0267092 0.050829 -0.02022 -0.00572296 
0.0502273 0.00166519 0.0269234 0.133789 0.0754539 0.00203819 -0.435244 -0.178911 -0.0161749 
-0.0594238 0.0849942 0.0439846 0.183634 0.0550818 -0.00542821 -0.229515 -0.0978753 0.00441541 
-0.0203391 0.0280486 -0.0537943 0.0346159 0.136797 -0.0621737 -0.128362 -0.221859 -0.0256288 