# vtk DataFile Version 4.0
Generated by LIGGGHTS
ASCII
DATASET POLYDATA
POINTS 415 float
0.0639051 0.00786626 0.00253515 0.037234 0.00962625 0.00262534 0.0449243 0.00837317 0.00297806 
0.069303 0.00862572 0.00296921 0.0848226 0.00895158 0.00286127 0.0959362 0.0080189 0.00250643 
0.108159 0.00932892 0.0026222 0.116002 0.00894343 0.00278475 0.132459 0.00816485 0.00258291 
0.0141218 0.0109419 0.00273353 0.0188732 0.0111158 0.00297519 0.0274383 0.0104705 0.00294612 
0.0569541 0.0102614 0.00286125 0.0760912 0.0109617 0.0025316 0.080737 0.0120037 0.00293111 
0.090946 0.010398 0.00285596 0.121362 0.0121499 0.0028586 0.128559 0.0109089 0.0025412 
0.136429 0.0125997 0.00277236 0.00953442 0.0128244 0.00255125 0.0489586 0.0133954 0.00283814 
0.0651671 0.0148336 0.00271322 0.070177 0.0132721 0.00286202 0.0964107 0.0146972 0.00284515 
0.101684 0.0139305 0.00298784 0.112699 0.0128411 0.00292831 0.131499 0.0146667 0.00272971 
0.0160437 0.0155572 0.00292215 0.0228581 0.0153721 0.0027513 0.040071 0.0152839 0.00288641 
0.0729928 0.017067 0.00278684 0.0903356 0.0161999 0.00278882 0.106333 0.0150781 0.00257823 
0.0117125 0.0187229 0.00264251 0.0262254 0.019294 0.00299565 0.0331041 0.01808 0.00264718 
0.0518197 0.0178634 0.00284293 0.0839473 0.0196311 0.00273979 0.117216 0.0182891 0.00275194 
0.122471 0.0187147 0.00254829 0.135144 0.0181523 0.00259512 0.0566895 0.0197192 0.00254971 
0.0634558 0.0213586 0.00257608 0.0968288 0.0199688 0.00289255 0.102157 0.0198559 0.00257365 
0.128161 0.0208685 0.00261724 0.0129665 0.0241958 0.00297327 0.0313445 0.022918 0.00288033 
0.0426349 0.0226367 0.00288368 0.0478743 0.0226526 0.00272255 0.0691856 0.0240748 0.00263767 
0.0877003 0.0237854 0.00257289 0.106127 0.0238257 0.00262287 0.111808 0.0222832 0.00288185 
0.134 0.0237272 0.00253025 0.0197007 0.0259395 0.00288681 0.0262579 0.0256418 0.0025951 
0.0558065 0.0252404 0.00263975 0.0756416 0.0250347 0.00274426 0.081786 0.0265825 0.00298127 
0.117734 0.0257394 0.00256774 0.128571 0.0264214 0.00272651 0.138089 0.0263591 0.00274967 
0.0383199 0.0268718 0.00299922 0.0473362 0.0276347 0.00260036 0.0618008 0.0274584 0.00297781 
0.0905614 0.0290409 0.00255377 0.104528 0.0287119 0.00286394 0.110241 0.0277553 0.00265372 
0.122407 0.0282831 0.00262847 0.012864 0.0297461 0.00269246 0.0176099 0.030466 0.00293877 
0.0232674 0.030979 0.00273199 0.0283645 0.0309711 0.00296618 0.0328066 0.0292488 0.00253035 
0.0414461 0.0309777 0.00267022 0.0554849 0.0300471 0.00298017 0.0661886 0.0310501 0.00269232 
0.0734338 0.0292543 0.00254736 0.0785261 0.0308531 0.00266315 0.0958892 0.0292101 0.0028981 
0.116731 0.0303899 0.00274739 0.127103 0.0312903 0.00260942 0.133087 0.0298929 0.00268398 
0.0509925 0.031608 0.00262309 0.111206 0.0327378 0.00285402 0.122544 0.0330618 0.00257954 
0.137756 0.0320788 0.00276767 0.00917412 0.0342964 0.00257945 0.0243073 0.035702 0.00290545 
0.0446768 0.0347705 0.00255763 0.0495459 0.0361318 0.00271703 0.0616245 0.0355824 0.00276656 
0.081985 0.0341319 0.00271444 0.0897742 0.0343773 0.00295701 0.0983967 0.0350844 0.00290893 
0.118189 0.0353493 0.00255938 0.0181825 0.0369483 0.00262182 0.054312 0.0374952 0.00290164 
0.066631 0.0384997 0.0029201 0.0759767 0.0375026 0.00252304 0.105452 0.0371169 0.00250764 
0.111713 0.0380888 0.00298836 0.129359 0.0366751 0.00260287 0.134301 0.0372376 0.00264549 
0.00990572 0.0399701 0.00284408 0.0314135 0.0391053 0.00264449 0.0389956 0.039038 0.00287295 
0.0718451 0.0406899 0.00263485 0.0878378 0.0392224 0.0025462 0.100149 0.0404279 0.00264373 
0.116695 0.0404042 0.00291364 0.0204087 0.0417136 0.00265728 0.0261867 0.0432809 0.00281122 
0.0440263 0.043184 0.00254171 0.0499166 0.0422204 0.00297545 0.0609633 0.0423864 0.00253308 
0.0823655 0.041794 0.00265502 0.094776 0.0422854 0.0027211 0.109265 0.0423101 0.00274224 
0.122128 0.043006 0.00274128 0.130637 0.0415534 0.0029841 0.0318785 0.0438273 0.00292183 
0.0367817 0.0452722 0.00252862 0.0564475 0.0436731 0.00274415 0.0642545 0.0457887 0.0026859 
0.0693891 0.0448265 0.00254693 0.0903423 0.0440032 0.00295759 0.0151053 0.0457963 0.00291759 
0.022201 0.0465436 0.00290465 0.0297568 0.0481075 0.00287374 0.0526766 0.0464978 0.00270073 
0.0761702 0.0469851 0.0026273 0.101459 0.0467526 0.00295043 0.110262 0.046961 0.00291932 
0.121018 0.0477745 0.00279616 0.137412 0.0458605 0.00289597 0.035031 0.0497667 0.00259531 
0.0409053 0.0504524 0.00295891 0.0456235 0.0501958 0.00267159 0.0711158 0.0498784 0.00283048 
0.082607 0.0487132 0.00286502 0.0915751 0.0489539 0.00258699 0.12613 0.0500631 0.0027991 
0.0079296 0.0517988 0.00270611 0.021004 0.0514536 0.00296912 0.0497062 0.0525705 0.00254325 
0.0554057 0.0524014 0.00264125 0.0626943 0.052747 0.00267835 0.0760981 0.0520235 0.00250256 
0.0994585 0.0517587 0.00275836 0.105582 0.0522168 0.00281997 0.110773 0.0520561 0.00285038 
0.11643 0.0508989 0.00281423 0.132663 0.0523694 0.00275027 0.0283087 0.0536391 0.00280216 
0.0348587 0.0552207 0.00266404 0.121252 0.0544185 0.00275264 0.0103246 0.0569578 0.00269813 
0.040202 0.0559215 0.00294003 0.0559284 0.0576252 0.00299299 0.0773787 0.0571736 0.00271606 
0.0821067 0.056654 0.00291078 0.0890121 0.0564036 0.00289324 0.0952881 0.0566121 0.00256974 
0.10191 0.0561543 0.00278275 0.136416 0.0565723 0.00286244 0.0153471 0.0576486 0.00250531 
0.0220015 0.0578729 0.00265841 0.032556 0.0595343 0.0025654 0.067612 0.0591239 0.00299933 
0.109158 0.0587417 0.00266083 0.126572 0.0579218 0.00250506 0.0273368 0.0609193 0.00255827 
0.0614332 0.0616994 0.00299873 0.0724056 0.0618696 0.002507 0.0908365 0.061032 0.00269531 
0.116383 0.0603815 0.00296346 0.123883 0.0622493 0.00281522 0.133049 0.06104 0.00270292 
0.00979469 0.0646319 0.00260097 0.0218156 0.0626645 0.00285743 0.0354407 0.0633184 0.00279039 
0.0490188 0.0635697 0.00252701 0.0681123 0.0639368 0.00275987 0.086658 0.0642789 0.00297286 
0.0966707 0.0633305 0.00285099 0.104715 0.0642143 0.00272833 0.0278355 0.0670426 0.00293889 
0.0402106 0.0659419 0.00269823 0.0559449 0.0647608 0.00281268 0.0771276 0.0662229 0.00250204 
0.0911021 0.0670268 0.00273694 0.109665 0.0663918 0.00259245 0.11459 0.0650333 0.00290006 
0.12759 0.0652228 0.00252527 0.137501 0.0654759 0.00270709 0.0463734 0.067687 0.00259768 
0.0510995 0.0694537 0.00278442 0.0637238 0.0675732 0.00268832 0.0696183 0.0684471 0.00256779 
0.118835 0.0672609 0.00284659 0.0101764 0.0716296 0.00290597 0.0168988 0.0714707 0.00275345 
0.0576891 0.0717439 0.00275265 0.0796431 0.0706267 0.00256094 0.0869798 0.0700241 0.00264736 
0.100879 0.0708303 0.00292699 0.111441 0.0716555 0.00270168 0.132327 0.0703523 0.00272491 
0.0267851 0.0718382 0.00260911 0.0351839 0.0719821 0.00277052 0.0435138 0.072363 0.00295005 
0.0655081 0.0732384 0.00258945 0.0738574 0.0738733 0.00265607 0.0927256 0.0725391 0.00250782 
0.116849 0.072459 0.00284691 0.121608 0.0736646 0.00266573 0.129264 0.0741638 0.00255291 
0.0109731 0.0763429 0.00296761 0.0221144 0.0754002 0.00269945 0.0305981 0.074744 0.00280597 
0.0378372 0.0759658 0.00281042 0.0532112 0.0752625 0.00290186 0.0815595 0.0762995 0.00279357 
0.0862373 0.0753849 0.00263101 0.104131 0.0743018 0.00286442 0.0425739 0.0775379 0.00281331 
0.0604618 0.0778512 0.00273645 0.0994202 0.0777304 0.00272772 0.109746 0.0766379 0.0027954 
0.134689 0.0776021 0.00275786 0.0126178 0.0811609 0.00265748 0.0289452 0.0808889 0.00280611 
0.0507405 0.0793315 0.00293668 0.0557047 0.0802537 0.00257915 0.0699827 0.079609 0.00258028 
0.0747435 0.0801114 0.00289652 0.0891582 0.0813145 0.00259704 0.0953696 0.0805436 0.00288129 
0.104386 0.0791324 0.00265913 0.120941 0.0802755 0.00284529 0.0180004 0.0822871 0.00281264 
0.0367481 0.0818773 0.00285076 0.0649782 0.081644 0.00262511 0.114335 0.0833876 0.00254386 
0.137173 0.0835228 0.0026905 0.011858 0.0858871 0.00277065 0.0222355 0.0856137 0.00258829 
0.0317018 0.0857746 0.00271681 0.054378 0.0854208 0.00298636 0.0707547 0.0856122 0.00257624 
0.0803591 0.0842876 0.00251713 0.0927987 0.0857746 0.0027716 0.10159 0.0854051 0.00285024 
0.108493 0.0842562 0.00298992 0.119927 0.0850462 0.00288218 0.125066 0.0849467 0.00280951 
0.129849 0.0850112 0.00253575 0.0414253 0.0872775 0.00284764 0.0475714 0.0875165 0.00273417 
0.0630419 0.0879604 0.0027676 0.0755231 0.0863225 0.00276934 0.0867226 0.0864626 0.00259968 
0.135798 0.0882192 0.00273799 0.0101193 0.090308 0.00286466 0.0359852 0.0901866 0.00297466 
0.0559057 0.0898913 0.00286512 0.118345 0.090387 0.00263632 0.124525 0.089881 0.00277332 
0.0161929 0.0914959 0.00255293 0.0236985 0.0925248 0.00276503 0.0295566 0.0928144 0.0029846 
0.0442784 0.0923724 0.002985 0.0504432 0.0914659 0.00272871 0.0594437 0.0930216 0.00289915 
0.072179 0.0913917 0.00271556 0.0883482 0.0910568 0.00256837 0.0993644 0.0918337 0.00273324 
0.108437 0.0908533 0.00272134 0.130664 0.0908451 0.00262708 0.0924779 0.095072 0.00262554 
0.104524 0.0953373 0.0027568 0.115292 0.0954419 0.00279915 0.00787596 0.0958113 0.0026745 
0.0514145 0.0972983 0.00291395 0.0682416 0.0957473 0.00285539 0.081308 0.0957554 0.0028754 
0.0981513 0.0970728 0.00253726 0.128139 0.0978168 0.00263312 0.137648 0.0970893 0.00285702 
0.0176879 0.0996525 0.00269815 0.0431939 0.0984797 0.00296506 0.0597157 0.0980136 0.00297237 
0.072991 0.100124 0.00296287 0.0864993 0.0983747 0.00259991 0.102655 0.100021 0.00282534 
0.108534 0.0984152 0.0028207 0.12266 0.0982951 0.0026681 0.132507 0.0996617 0.00300269 
0.00925894 0.100676 0.00262778 0.0224294 0.101075 0.00257005 0.0347858 0.101331 0.00271702 
0.0394925 0.10258 0.002509 0.0685314 0.101954 0.00265283 0.0788413 0.101075 0.00289612 
0.0986019 0.102579 0.00267159 0.11698 0.101991 0.00252902 0.0501855 0.104193 0.00289709 
0.0601164 0.103468 0.00264552 0.0877372 0.104241 0.00280114 0.0929686 0.104474 0.00257094 
0.104906 0.104297 0.00277122 0.123192 0.103092 0.00299337 0.13494 0.103738 0.00274182 
0.00877605 0.1055 0.00284518 0.0305459 0.106491 0.00298283 0.0394093 0.107373 0.00285638 
0.0554973 0.105591 0.00264358 0.0731843 0.105358 0.00269708 0.0824979 0.105937 0.00274051 
0.109716 0.106491 0.00267987 0.0149563 0.107423 0.00260534 0.0230967 0.107873 0.00284697 
0.0468429 0.108131 0.00291897 0.0628918 0.107482 0.00278912 0.0679993 0.107849 0.00290013 
0.0760855 0.10944 0.00275284 0.121794 0.108492 0.00296407 0.0350614 0.110074 0.00262686 
0.0520663 0.11071 0.00288724 0.0602388 0.111851 0.002782 0.0843063 0.111763 0.00296446 
0.0920208 0.111103 0.00253426 0.101595 0.110734 0.00263408 0.10831 0.11169 0.00252848 
0.11776 0.111337 0.00257717 0.127732 0.111859 0.00289554 0.133761 0.111281 0.00297319 
0.0380928 0.113925 0.00251554 0.0443116 0.112374 0.00298931 0.0681482 0.112607 0.00289485 
0.137695 0.113988 0.00278171 0.0100628 0.114519 0.00250573 0.0177371 0.114672 0.00280153 
0.0275651 0.115379 0.00252854 0.032692 0.115258 0.0028035 0.0998128 0.115218 0.00290205 
0.112472 0.116287 0.00255222 0.118652 0.116552 0.00281343 0.123771 0.115998 0.00286929 
0.0426887 0.117195 0.00274221 0.0554097 0.118698 0.00291665 0.0644339 0.116897 0.00251047 
0.0724376 0.116922 0.00260351 0.0853272 0.117139 0.00266001 0.0934917 0.117267 0.00260423 
0.131968 0.118577 0.00252393 0.0083275 0.121462 0.00250066 0.0168776 0.120184 0.002674 
0.0242064 0.120602 0.0025193 0.104975 0.120401 0.00256386 0.112907 0.121334 0.00298241 
0.124936 0.121598 0.00263437 0.0303299 0.122884 0.00276914 0.0372148 0.123102 0.00273852 
0.042016 0.122642 0.00269182 0.0590711 0.122439 0.00273187 0.0798792 0.12241 0.00283736 
0.0901572 0.123174 0.00280598 0.0216914 0.125158 0.00271246 0.0676969 0.124154 0.00290436 
0.0749668 0.125888 0.00259689 0.0848053 0.124243 0.002997 0.0964574 0.124146 0.00267627 
0.118227 0.125198 0.00265741 0.134732 0.123977 0.00263652 0.0128922 0.127159 0.00255134 
0.0516333 0.126765 0.00256926 0.0603795 0.127074 0.00265861 0.107145 0.127529 0.00265866 
0.113565 0.126758 0.00266276 0.12599 0.128132 0.0027514 0.0297155 0.128801 0.00267637 
0.0465547 0.12949 0.00288542 0.0707589 0.130687 0.00288769 0.0761203 0.130548 0.00258609 
0.0834957 0.129032 0.00262597 0.0894826 0.130465 0.00255124 0.0940308 0.128852 0.0027739 
0.0201081 0.131547 0.00296645 0.0322786 0.132874 0.00254964 0.0367814 0.131086 0.00251088 
0.0652865 0.131314 0.00283409 0.10005 0.132648 0.00286259 0.105112 0.133251 0.00251537 
0.0235047 0.135076 0.00277586 0.0421996 0.134504 0.0025763 0.0496891 0.13538 0.00263116 
0.0548882 0.134006 0.0025099 0.0798249 0.133544 0.00254661 0.0935972 0.133821 0.00253731 
0.113743 0.134818 0.00273692 0.129799 0.135694 0.00288149 0.00832017 0.136079 0.00282115 
0.013126 0.13722 0.0025001 0.0281891 0.135902 0.00251125 0.0351786 0.136658 0.00271141 
0.0605376 0.136264 0.00258809 0.0764568 0.137742 0.00250855 0.0839467 0.137455 0.00269075 
0.0886789 0.136463 0.00272166 0.105732 0.137952 0.00295498 0.118541 0.136192 0.00292215 
0.124294 0.136851 0.00276857 
VERTICES 415 830
1 0 
1 1 
1 2 
1 3 
1 4 
1 5 
1 6 
1 7 
1 8 
1 9 
1 10 
1 11 
1 12 
1 13 
1 14 
1 15 
1 16 
1 17 
1 18 
1 19 
1 20 
1 21 
1 22 
1 23 
1 24 
1 25 
1 26 
1 27 
1 28 
1 29 
1 30 
1 31 
1 32 
1 33 
1 34 
1 35 
1 36 
1 37 
1 38 
1 39 
1 40 
1 41 
1 42 
1 43 
1 44 
1 45 
1 46 
1 47 
1 48 
1 49 
1 50 
1 51 
1 52 
1 53 
1 54 
1 55 
1 56 
1 57 
1 58 
1 59 
1 60 
1 61 
1 62 
1 63 
1 64 
1 65 
1 66 
1 67 
1 68 
1 69 
1 70 
1 71 
1 72 
1 73 
1 74 
1 75 
1 76 
1 77 
1 78 
1 79 
1 80 
1 81 
1 82 
1 83 
1 84 
1 85 
1 86 
1 87 
1 88 
1 89 
1 90 
1 91 
1 92 
1 93 
1 94 
1 95 
1 96 
1 97 
1 98 
1 99 
1 100 
1 101 
1 102 
1 103 
1 104 
1 105 
1 106 
1 107 
1 108 
1 109 
1 110 
1 111 
1 112 
1 113 
1 114 
1 115 
1 116 
1 117 
1 118 
1 119 
1 120 
1 121 
1 122 
1 123 
1 124 
1 125 
1 126 
1 127 
1 128 
1 129 
1 130 
1 131 
1 132 
1 133 
1 134 
1 135 
1 136 
1 137 
1 138 
1 139 
1 140 
1 141 
1 142 
1 143 
1 144 
1 145 
1 146 
1 147 
1 148 
1 149 
1 150 
1 151 
1 152 
1 153 
1 154 
1 155 
1 156 
1 157 
1 158 
1 159 
1 160 
1 161 
1 162 
1 163 
1 164 
1 165 
1 166 
1 167 
1 168 
1 169 
1 170 
1 171 
1 172 
1 173 
1 174 
1 175 
1 176 
1 177 
1 178 
1 179 
1 180 
1 181 
1 182 
1 183 
1 184 
1 185 
1 186 
1 187 
1 188 
1 189 
1 190 
1 191 
1 192 
1 193 
1 194 
1 195 
1 196 
1 197 
1 198 
1 199 
1 200 
1 201 
1 202 
1 203 
1 204 
1 205 
1 206 
1 207 
1 208 
1 209 
1 210 
1 211 
1 212 
1 213 
1 214 
1 215 
1 216 
1 217 
1 218 
1 219 
1 220 
1 221 
1 222 
1 223 
1 224 
1 225 
1 226 
1 227 
1 228 
1 229 
1 230 
1 231 
1 232 
1 233 
1 234 
1 235 
1 236 
1 237 
1 238 
1 239 
1 240 
1 241 
1 242 
1 243 
1 244 
1 245 
1 246 
1 247 
1 248 
1 249 
1 250 
1 251 
1 252 
1 253 
1 254 
1 255 
1 256 
1 257 
1 258 
1 259 
1 260 
1 261 
1 262 
1 263 
1 264 
1 265 
1 266 
1 267 
1 268 
1 269 
1 270 
1 271 
1 272 
1 273 
1 274 
1 275 
1 276 
1 277 
1 278 
1 279 
1 280 
1 281 
1 282 
1 283 
1 284 
1 285 
1 286 
1 287 
1 288 
1 289 
1 290 
1 291 
1 292 
1 293 
1 294 
1 295 
1 296 
1 297 
1 298 
1 299 
1 300 
1 301 
1 302 
1 303 
1 304 
1 305 
1 306 
1 307 
1 308 
1 309 
1 310 
1 311 
1 312 
1 313 
1 314 
1 315 
1 316 
1 317 
1 318 
1 319 
1 320 
1 321 
1 322 
1 323 
1 324 
1 325 
1 326 
1 327 
1 328 
1 329 
1 330 
1 331 
1 332 
1 333 
1 334 
1 335 
1 336 
1 337 
1 338 
1 339 
1 340 
1 341 
1 342 
1 343 
1 344 
1 345 
1 346 
1 347 
1 348 
1 349 
1 350 
1 351 
1 352 
1 353 
1 354 
1 355 
1 356 
1 357 
1 358 
1 359 
1 360 
1 361 
1 362 
1 363 
1 364 
1 365 
1 366 
1 367 
1 368 
1 369 
1 370 
1 371 
1 372 
1 373 
1 374 
1 375 
1 376 
1 377 
1 378 
1 379 
1 380 
1 381 
1 382 
1 383 
1 384 
1 385 
1 386 
1 387 
1 388 
1 389 
1 390 
1 391 
1 392 
1 393 
1 394 
1 395 
1 396 
1 397 
1 398 
1 399 
1 400 
1 401 
1 402 
1 403 
1 404 
1 405 
1 406 
1 407 
1 408 
1 409 
1 410 
1 411 
1 412 
1 413 
1 414 

POINT_DATA 415
FIELD FieldData 7
id 1 415 int
35 92 26 306 139 309 247 412 396 
335 244 197 327 267 171 98 29 334 
36 47 165 395 68 31 373 283 30 
401 331 253 385 225 198 252 211 312 
49 19 124 24 310 273 186 32 305 
329 162 141 156 103 120 166 257 187 
66 339 7 391 276 215 264 234 376 
351 223 301 362 259 261 239 130 144 
115 387 256 70 326 71 268 206 109 
58 367 63 9 369 400 354 121 111 
403 258 134 94 363 240 102 399 72 
21 17 25 384 75 338 250 243 51 
382 311 358 176 353 356 95 392 217 
116 213 85 201 195 342 6 64 349 
96 113 54 93 212 325 11 53 152 
136 294 38 229 202 322 8 224 271 
12 199 343 88 50 410 308 154 315 
288 77 37 182 286 307 413 227 161 
365 316 238 18 279 117 180 411 245 
4 355 289 191 314 142 324 87 297 
173 269 5 137 303 149 260 378 277 
131 125 108 405 128 296 228 145 207 
254 393 110 372 360 101 194 290 226 
169 236 23 320 390 27 415 89 40 
366 205 350 332 46 404 99 79 3 
408 352 16 270 248 204 107 55 45 
221 143 20 344 100 185 15 129 184 
242 61 379 181 106 284 41 383 263 
73 287 33 317 175 91 280 246 39 
56 157 210 347 97 274 251 10 188 
209 132 65 298 126 388 28 386 178 
158 345 190 293 122 262 200 172 78 
22 86 163 135 377 291 370 368 321 
340 237 397 394 337 285 57 281 255 
313 123 34 406 112 168 282 170 231 
304 218 1 230 409 69 381 275 167 
292 133 147 14 295 150 104 333 62 
323 328 60 336 203 208 371 330 374 
189 183 302 42 138 44 233 220 357 
164 153 84 214 265 90 299 216 361 
278 48 177 266 319 81 407 151 318 
159 2 193 414 402 114 380 160 83 
140 148 179 272 235 249 222 127 300 
52 398 13 67 241 118 174 146 74 
389 43 346 59 348 119 105 219 375 
82 232 364 196 80 192 359 155 76 
341 
type 1 415 int
1 1 1 1 1 1 1 1 1 
1 1 1 1 1 1 1 1 1 
1 1 1 1 1 1 1 1 1 
1 1 1 1 1 1 1 1 1 
1 1 1 1 1 1 1 1 1 
1 1 1 1 1 1 1 1 1 
1 1 1 1 1 1 1 1 1 
1 1 1 1 1 1 1 1 1 
1 1 1 1 1 1 1 1 1 
1 1 1 1 1 1 1 1 1 
1 1 1 1 1 1 1 1 1 
1 1 1 1 1 1 1 1 1 
1 1 1 1 1 1 1 1 1 
1 1 1 1 1 1 1 1 1 
1 1 1 1 1 1 1 1 1 
1 1 1 1 1 1 1 1 1 
1 1 1 1 1 1 1 1 1 
1 1 1 1 1 1 1 1 1 
1 1 1 1 1 1 1 1 1 
1 1 1 1 1 1 1 1 1 
1 1 1 1 1 1 1 1 1 
1 1 1 1 1 1 1 1 1 
1 1 1 1 1 1 1 1 1 
1 1 1 1 1 1 1 1 1 
1 1 1 1 1 1 1 1 1 
1 1 1 1 1 1 1 1 1 
1 1 1 1 1 1 1 1 1 
1 1 1 1 1 1 1 1 1 
1 1 1 1 1 1 1 1 1 
1 1 1 1 1 1 1 1 1 
1 1 1 1 1 1 1 1 1 
1 1 1 1 1 1 1 1 1 
1 1 1 1 1 1 1 1 1 
1 1 1 1 1 1 1 1 1 
1 1 1 1 1 1 1 1 1 
1 1 1 1 1 1 1 1 1 
1 1 1 1 1 1 1 1 1 
1 1 1 1 1 1 1 1 1 
1 1 1 1 1 1 1 1 1 
1 1 1 1 1 1 1 1 1 
1 1 1 1 1 1 1 1 1 
1 1 1 1 1 1 1 1 1 
1 1 1 1 1 1 1 1 1 
1 1 1 1 1 1 1 1 1 
1 1 1 1 1 1 1 1 1 
1 1 1 1 1 1 1 1 1 
1 
i 3 415 int
0 0 0 0 0 0 0 0 0 
0 0 0 0 0 0 0 0 0 
0 0 0 0 0 0 0 0 0 
0 0 0 0 0 0 0 0 0 
0 0 0 0 0 0 0 0 0 
0 0 0 0 0 0 0 0 0 
0 0 0 0 0 0 0 0 0 
0 0 0 0 0 0 0 0 0 
0 0 0 0 0 0 0 0 0 
0 0 0 0 0 0 0 0 0 
0 0 0 0 0 0 0 0 0 
0 0 0 0 0 0 0 0 0 
0 0 0 0 0 0 0 0 0 
0 0 0 0 0 0 0 0 0 
0 0 0 0 0 0 0 0 0 
0 0 0 0 0 0 0 0 0 
0 0 0 0 0 0 0 0 0 
0 0 0 0 0 0 0 0 0 
0 0 0 0 0 0 0 0 0 
0 0 0 0 0 0 0 0 0 
0 0 0 0 0 0 0 0 0 
0 0 0 0 0 0 0 0 0 
0 0 0 0 0 0 0 0 0 
0 0 0 0 0 0 0 0 0 
0 0 0 0 0 0 0 0 0 
0 0 0 0 0 0 0 0 0 
0 0 0 0 0 0 0 0 0 
0 0 0 0 0 0 0 0 0 
0 0 0 0 0 0 0 0 0 
0 0 0 0 0 0 0 0 0 
0 0 0 0 0 0 0 0 0 
0 0 0 0 0 0 0 0 0 
0 0 0 0 0 0 0 0 0 
0 0 0 0 0 0 0 0 0 
0 0 0 0 0 0 0 0 0 
0 0 0 0 0 0 0 0 0 
0 0 0 0 0 0 0 0 0 
0 0 0 0 0 0 0 0 0 
0 0 0 0 0 0 0 0 0 
0 0 0 0 0 0 0 0 0 
0 0 0 0 0 0 0 0 0 
0 0 0 0 0 0 0 0 0 
0 0 0 0 0 0 0 0 0 
0 0 0 0 0 0 0 0 0 
0 0 0 0 0 0 0 0 0 
0 0 0 0 0 0 0 0 0 
0 0 0 0 0 0 0 0 0 
0 0 0 0 0 0 0 0 0 
0 0 0 0 0 0 0 0 0 
0 0 0 0 0 0 0 0 0 
0 0 0 0 0 0 0 0 0 
0 0 0 0 0 0 0 0 0 
0 0 0 0 0 0 0 0 0 
0 0 0 0 0 0 0 0 0 
0 0 0 0 0 0 0 0 0 
0 0 0 0 0 0 0 0 0 
0 0 0 0 0 0 0 0 0 
0 0 0 0 0 0 0 0 0 
0 0 0 0 0 0 0 0 0 
0 0 0 0 0 0 0 0 0 
0 0 0 0 0 0 0 0 0 
0 0 0 0 0 0 0 0 0 
0 0 0 0 0 0 0 0 0 
0 0 0 0 0 0 0 0 0 
0 0 0 0 0 0 0 0 0 
0 0 0 0 0 0 0 0 0 
0 0 0 0 0 0 0 0 0 
0 0 0 0 0 0 0 0 0 
0 0 0 0 0 0 0 0 0 
0 0 0 0 0 0 0 0 0 
0 0 0 0 0 0 0 0 0 
0 0 0 0 0 0 0 0 0 
0 0 0 0 0 0 0 0 0 
0 0 0 0 0 0 0 0 0 
0 0 0 0 0 0 0 0 0 
0 0 0 0 0 0 0 0 0 
0 0 0 0 0 0 0 0 0 
0 0 0 0 0 0 0 0 0 
0 0 0 0 0 0 0 0 0 
0 0 0 0 0 0 0 0 0 
0 0 0 0 0 0 0 0 0 
0 0 0 0 0 0 0 0 0 
0 0 0 0 0 0 0 0 0 
0 0 0 0 0 0 0 0 0 
0 0 0 0 0 0 0 0 0 
0 0 0 0 0 0 0 0 0 
0 0 0 0 0 0 0 0 0 
0 0 0 0 0 0 0 0 0 
0 0 0 0 0 0 0 0 0 
0 0 0 0 0 0 0 0 0 
0 0 0 0 0 0 0 0 0 
0 0 0 0 0 0 0 0 0 
0 0 0 0 0 0 0 0 0 
0 0 0 0 0 0 0 0 0 
0 0 0 0 0 0 0 0 0 
0 0 0 0 0 0 0 0 0 
0 0 0 0 0 0 0 0 0 
0 0 0 0 0 0 0 0 0 
0 0 0 0 0 0 0 0 0 
0 0 0 0 0 0 0 0 0 
0 0 0 0 0 0 0 0 0 
0 0 0 0 0 0 0 0 0 
0 0 0 0 0 0 0 0 0 
0 0 0 0 0 0 0 0 0 
0 0 0 0 0 0 0 0 0 
0 0 0 0 0 0 0 0 0 
0 0 0 0 0 0 0 0 0 
0 0 0 0 0 0 0 0 0 
0 0 0 0 0 0 0 0 0 
0 0 0 0 0 0 0 0 0 
0 0 0 0 0 0 0 0 0 
0 0 0 0 0 0 0 0 0 
0 0 0 0 0 0 0 0 0 
0 0 0 0 0 0 0 0 0 
0 0 0 0 0 0 0 0 0 
0 0 0 0 0 0 0 0 0 
0 0 0 0 0 0 0 0 0 
0 0 0 0 0 0 0 0 0 
0 0 0 0 0 0 0 0 0 
0 0 0 0 0 0 0 0 0 
0 0 0 0 0 0 0 0 0 
0 0 0 0 0 0 0 0 0 
0 0 0 0 0 0 0 0 0 
0 0 0 0 0 0 0 0 0 
0 0 0 0 0 0 0 0 0 
0 0 0 0 0 0 0 0 0 
0 0 0 0 0 0 0 0 0 
0 0 0 0 0 0 0 0 0 
0 0 0 0 0 0 0 0 0 
0 0 0 0 0 0 0 0 0 
0 0 0 0 0 0 0 0 0 
0 0 0 0 0 0 0 0 0 
0 0 0 0 0 0 0 0 0 
0 0 0 0 0 0 0 0 0 
0 0 0 0 0 0 0 0 0 
0 0 0 0 0 0 0 0 0 
0 0 0 0 0 0 0 0 0 
0 0 0 0 0 0 0 0 0 
0 0 0 
v 3 415 double
0 0 0 0 0 0 0 0 0 
-0.0152862 -0.0773888 0.00173813 0 0 0 0 0 0 
0 0 0 0 0 0 0.0507164 -0.0372711 0.000489624 
-0.084408 -0.00336148 -0.0041846 0.0850824 0.00311364 0.00421197 0 0 0 
0 0 0 -0.051457 -0.0115413 -0.00433711 0.051457 0.0115413 0.00433711 
0 0 0 0 0 0 -0.0840571 -0.0079065 -0.00265152 
0 0 0 -0.000674356 0.000247845 -2.73747e-05 0 0 0 
0 0 0 -0.0234445 0.0234773 -0.00068597 0 0 0 
-0.0333548 -0.00823277 0.0028928 0 0 0 0.0333407 0.0451776 0.0021619 
0 0 0 0 0 0 0 0 0 
0.0387307 0.0539115 -0.00105216 0 0 0 0.0333548 0.00823277 -0.0028928 
0 0 0 0 0 0 0 0 0 
0 0 0 0 0 0 0 0 0 
0 0 0 0 0 0 0 0 0 
0 0 0 0 0 0 0 0 0 
0 0 0 0 0 0 0 0 0 
0 0 0 0 0 0 0 0 0 
0 0 0 0 0 0 0 0 0 
-0.0115932 -0.00746315 -0.000616208 5.54551e-05 -0.00010649 -9.32567e-07 0 0 0 
0.00197276 -0.0228208 -0.00154996 0.0302254 -0.0577667 0.00263513 0 0 0 
0.0164822 -0.0763571 -0.00287557 0 0 0 0.0115932 0.00746315 0.000616208 
0 0 0 0 0 0 0 0 0 
0 0 0 0 0 0 0 0 0 
-0.00146329 -0.0498223 0.000500373 -0.0337373 -0.00511771 -0.00172391 0.0336819 0.0052242 0.00172484 
-0.00459546 -0.020871 -0.000757301 -0.0444975 0.0172526 0.00428391 0.0444975 -0.0172526 -0.00428391 
-0.000119433 -0.000140214 4.15751e-06 0.0362206 0.00769315 0.00443965 0 0 0 
-0.0302254 0.0577667 -0.00263513 -0.0470933 -0.0446425 -0.000682702 0 0 0 
-0.0164822 0.0763571 0.00287557 0.00910974 -0.00307591 5.45638e-05 0 0 0 
-0.014243 -0.0580323 -0.00431912 0 0 0 -0.00406239 0.0508002 -0.000536218 
0 0 0 0 0 0 0.00459546 0.020871 0.000757301 
0.000119433 0.000140214 -4.15751e-06 -0.0249749 0.0727428 0.00138621 0 0 0 
0.0470933 0.0446425 0.000682702 0 0 0 0 0 0 
-0.00358406 0.002098 -1.87185e-05 0 0 0 0.00102458 0.000417141 4.32266e-05 
0 0 0 0 0 0 0 0 0 
0.00345614 -0.00673849 0.000336706 -0.000454189 -5.17017e-05 -3.91014e-06 0.000454189 5.17017e-05 3.91014e-06 
0 0 0 -0.00654324 -0.0690135 -0.00393119 0 0 0 
0.0162045 -0.0272936 0.000571435 0 0 0 0 0 0 
0 0 0 0 0 0 0 0 0 
0 0 0 0 0 0 0.0349166 -0.0743028 -0.00589057 
0 0 0 0.0780873 -0.0302529 -0.00405537 -0.0199486 -0.0702902 -0.00319287 
0.00183275 -0.00787768 -8.99898e-05 0 0 0 0.0217349 0.03656 0.00418881 
0.00967381 -0.0248353 -0.000363528 -0.027874 -0.0196833 0.00427431 0.052711 0.0505937 0.00212854 
-0.0162045 0.0272936 -0.000571435 -0.0780873 0.0302529 0.00405537 0 0 0 
0 0 0 -0.0151917 0.0324534 -0.000257618 -0.0597536 0.0433924 -0.000512274 
0 0 0 0 0 0 0.0164924 0.0770287 0.00285616 
-0.00183275 0.00787768 8.99898e-05 0 0 0 -0.00967381 0.0248353 0.000363528 
-0.0891046 0.00403286 0.00524581 0.034352 -0.0339707 -0.00347586 0 0 0 
0 0 0 0 0 0 0 0 0 
0 0 0 0 0 0 0.0547526 0.0299378 -0.00176994 
0 0 0 0 0 0 0 0 0 
0 0 0 0 0 0 0 0 0 
0 0 0 0 0 0 0 0 0 
0.00325143 -0.00715096 0.000127376 0 0 0 0 0 0 
0 0 0 0 0 0 -0.0822249 0.00903554 -0.0032979 
0.0822249 -0.00903554 0.0032979 -0.000111173 -0.000282036 1.20434e-05 0 0 0 
0 0 0 0 0 0 0 0 0 
0.00146235 -0.0376998 -0.0015403 -0.0450935 -0.0477876 -0.0033156 -0.00241019 -0.0157016 0.000813932 
0 0 0 0 0 0 0 0 0 
0 0 0 0.0487277 -0.0251313 -0.00278357 0.000111173 0.000282036 -1.20434e-05 
4.07137e-05 -0.000127709 1.77588e-06 -0.0621115 -0.0498177 0.00473402 0 0 0 
0 0 0 -0.00146235 0.0376998 0.0015403 0.041842 0.0549385 0.00318823 
0.00452772 -0.00704701 -0.000120055 -0.0656091 -0.0208241 0.00445403 0 0 0 
0 0 0 0 0 0 0.000775284 -0.00424144 0.00027666 
0 0 0 0 0 0 0 0 0 
0 0 0 0 0 0 -0.0359867 -0.0187358 0.000443326 
0.0621115 0.0498177 -0.00473402 0 0 0 -0.00452772 0.00704701 0.000120055 
0 0 0 0 0 0 0.0192916 0.061657 -0.00248438 
0.035946 0.0188635 -0.000445102 -0.0083024 -0.0491203 -0.000630053 0 0 0 
0 0 0 0 0 0 0 0 0 
-0.0571271 -0.061078 0.00107442 0 0 0 0.00538578 -0.00670047 0.000300095 
-0.031243 -0.0189874 -0.00182323 -0.025142 -0.0377486 -0.00037122 0 0 0 
0 0 0 0 0 0 0 0 0 
-0.00542767 -0.00137493 0.000205369 0.00542767 0.00137493 -0.000205369 -0.00538578 0.00670047 -0.000300095 
0.0083024 0.0491203 0.000630053 0 0 0 0.0304677 0.0232288 0.00154657 
0.0250982 0.0377322 0.00037117 0.0413068 -0.068026 -0.000567394 -0.0601278 0.0117559 0.00204432 
0.0601278 -0.0117559 -0.00204432 0.0556219 0.0461173 -0.000464031 4.38121e-05 1.641e-05 4.93414e-08 
0 0 0 0.00257225 -0.0017865 -9.70752e-05 0 0 0 
0 0 0 0.00475398 -0.0272988 -0.00064104 0 0 0 
-0.0413068 0.068026 0.000567394 0 0 0 -0.0386118 -0.00407503 -0.00252222 
0.0386118 0.00407503 0.00252222 0 0 0 -0.00257225 0.0017865 9.70752e-05 
0.0015052 0.0149607 -0.000610386 0.00240687 -0.0113309 -8.68389e-05 0 0 0 
0 0 0 0 0 0 0 0 0 
0.002389 -0.00816072 -8.19026e-05 0.0254989 -0.0497952 -0.000956685 0 0 0 
0 0 0 -0.0260188 -0.0731035 0.00188768 -0.0260193 -0.00387578 -0.00103952 
0 0 0 0 0 0 0 0 0 
0 0 0 -0.00240687 0.0113309 8.68389e-05 -0.0425283 -0.00144511 0.0024034 
0.0426735 0.000574866 -0.00239981 0 0 0 -0.00612642 -0.00842527 1.15629e-05 
0 0 0 0.0260193 0.00387578 0.00103952 -0.00413756 -0.0116937 7.89583e-05 
-0.002389 0.00816072 8.19026e-05 -0.0302528 0.077094 0.00159773 0 0 0 
-0.0275844 0.0241697 -0.00232887 0 0 0 -0.000145221 0.00087024 -3.58914e-06 
0 0 0 0 0 0 0 0 0 
0 0 0 0.00612642 0.00842527 -1.15629e-05 0.0536032 0.0489338 0.000441184 
0 0 0 0.00413756 0.0116937 -7.89583e-05 0 0 0 
0 0 0 0 0 0 0 0 0 
0 0 0 0 0 0 0 0 0 
0 0 0 0 0 0 0 0 0 
0 0 0 -0.0493268 -0.0215737 -0.00398397 0 0 0 
-0.00156808 -0.000470353 4.22255e-05 0 0 0 0 0 0 
0.0224963 -0.00923242 0.0015438 0 0 0 0.0222628 -0.0421631 0.00150822 
0 0 0 -0.00244254 -0.0220103 -0.00147427 0.0197788 -0.0267101 0.00690898 
0.00173028 -0.0172853 -0.000770573 0.00156808 0.000470353 -4.22255e-05 -0.0114075 -0.00330563 0.000480316 
0.0119412 -0.030415 -0.00288315 -0.0224963 0.00923242 -0.0015438 0 0 0 
-0.0339003 0.0211405 -0.00125798 0 0 0 0 0 0 
-0.00602945 -0.00872057 -0.000309362 0 0 0 0 0 0 
0.0116375 0.0210226 -0.000250237 0.00244254 0.0220103 0.00147427 0.029548 0.0482838 -0.00292501 
-0.00173028 0.0172853 0.000770573 0 0 0 -0.00053375 0.0337206 0.00240283 
0 0 0 0 0 0 0 0 0 
0 0 0 0 0 0 0 0 0 
0.00124637 -0.00208941 -3.44946e-05 0.00602945 0.00872057 0.000309362 -0.0026493 -0.0846164 9.12624e-05 
0 0 0 0.00138608 -0.000977283 0.000132488 -0.0043933 -0.00558127 0.000160235 
0 0 0 0 0 0 0 0 0 
0 0 0 0.00876118 -0.0220469 -0.00130087 0 0 0 
-0.00138608 0.000977283 -0.000132488 0 0 0 -0.0417899 -0.028748 0.00199448 
0.0043933 0.00558127 -0.000160235 -0.00124637 0.00208941 3.44946e-05 0.0026493 0.0846164 -9.12624e-05 
0.0417899 0.028748 -0.00199448 0 0 0 0 0 0 
0 0 0 0 0 0 -0.00876118 0.0220469 0.00130087 
0 0 0 0 0 0 0 0 0 
0 0 0 0 0 0 0 0 0 
0 0 0 0 0 0 0 0 0 
0 0 0 0 0 0 0 0 0 
0 0 0 0 0 0 0 0 0 
0 0 0 0 0 0 -0.0267084 0.00255902 0.000256245 
0.0267084 -0.00255902 -0.000256245 -0.00803238 -0.0284538 0.000443336 0 0 0 
0 0 0 0 0 0 0 0 0 
-0.00750885 -0.0278674 7.01793e-05 8.3239e-05 -0.00030439 2.35482e-05 0 0 0 
0.00488245 -0.00163314 -5.57087e-06 0 0 0 0 0 0 
0 0 0 0.00803238 0.0284538 -0.000443336 0 0 0 
-0.00488245 0.00163314 5.57087e-06 0 0 0 -0.0125564 -0.0195599 0.000558498 
0 0 0 0 0 0 -0.0367749 -0.00818637 0.000391955 
-8.3239e-05 0.00030439 -2.35482e-05 -0.0228154 0.00808911 -0.00110261 0.022817 -0.00811988 0.00110404 
-0.00404337 -0.00387882 0.000225333 -0.0393608 -0.0153477 -0.0021576 0.0190857 -0.00826394 -0.000196307 
0 0 0 0 0 0 -0.0110029 -0.0834493 -0.00759611 
-0.0633026 -0.00801062 0.00349095 0 0 0 0 0 0 
0 0 0 0.0442837 0.0360538 -0.000462134 -1.57255e-06 3.0768e-05 -1.42817e-06 
-2.17465e-05 -6.23001e-06 -8.39233e-07 0 0 0 -0.00174232 -0.000413553 0.000115992 
0.00174232 0.000413553 -0.000115992 0.0673459 0.0118894 -0.00371628 0.0328314 0.0431716 0.00179541 
0 0 0 0 0 0 -0.0222445 0.00466095 -0.000143485 
0.0222445 -0.00466095 0.000143485 0.0110029 0.0834493 0.00759611 2.17465e-05 6.23001e-06 8.39233e-07 
0 0 0 
f 3 415 double
0 0 0 0 0 0 0 0 0 
-0.699885 -3.39982 0.0781976 0 0 0 0 0 0 
0 0 0 0 0 0 2.36027 -1.8027 0.0215934 
-2.60698 -0.278586 -0.137652 3.06036 0.111948 0.156088 0 0 0 
0 0 0 -2.76651 -0.620503 -0.238138 2.76651 0.620503 0.238138 
0 0 0 0 0 0 -4.02949 -0.553916 -0.134804 
0 0 0 -0.453373 0.166638 -0.0184356 0 0 0 
0 0 0 -1.32791 0.533038 -0.0208629 0 0 0 
-2.39849 -0.592005 0.211398 0 0 0 1.66922 2.35661 0.113211 
0 0 0 0 0 0 0 0 0 
2.0278 2.86679 -0.0573348 0 0 0 2.39849 0.592005 -0.211398 
0 0 0 0 0 0 0 0 0 
0 0 0 0 0 0 0 0 0 
0 0 0 0 0 0 0 0 0 
0 0 0 0 0 0 0 0 0 
0 0 0 0 0 0 0 0 0 
0 0 0 0 0 0 0 0 0 
0 0 0 0 0 0 0 0 0 
-1.42659 -0.918372 -0.0765626 0.0790189 -0.151904 -0.00133561 0 0 0 
0.20681 -2.17057 -0.1473 1.3867 -2.65025 0.12386 0 0 0 
0.645764 -2.99162 -0.115833 0 0 0 1.42659 0.918372 0.0765626 
0 0 0 0 0 0 0 0 0 
0 0 0 0 0 0 0 0 0 
-0.0864597 -2.80623 0.0287427 -2.44694 -0.371174 -0.12705 2.36792 0.523079 0.128385 
-0.442306 -2.0088 -0.0737865 -2.5672 0.995359 0.252082 2.5672 -0.995359 -0.252082 
-0.134051 -0.157375 0.00467139 2.52449 1.04326 0.354814 0 0 0 
-1.3867 2.65025 -0.12386 -2.17297 -2.05988 -0.0322695 0 0 0 
-0.645764 2.99162 0.115833 1.32344 -0.435995 0.00788184 0 0 0 
-1.70653 -1.90282 -0.265224 0 0 0 -0.34805 2.71868 -0.0319239 
0 0 0 0 0 0 0.442306 2.0088 0.0737865 
0.134051 0.157375 -0.00467139 -1.48926 2.83993 0.0380326 0 0 0 
2.17297 2.05988 0.0322695 0 0 0 0 0 0 
-0.888934 0.523544 -0.00470064 0 0 0 0.464486 0.190194 0.0196776 
0 0 0 0 0 0 0 0 0 