# vtk DataFile Version 4.0
Generated by LIGGGHTS
ASCII
DATASET POLYDATA
POINTS 415 float
0.0517326 0.0240946 0.00298042 0.0654795 0.0235566 0.00247577 0.0704513 0.0229705 0.00306818 
0.0906767 0.0237399 0.00247692 0.118618 0.0233411 0.00258601 0.0283037 0.0252113 0.00270316 
0.0329609 0.0254998 0.00308738 0.038578 0.025756 0.00294612 0.045977 0.0251118 0.00262495 
0.060882 0.025598 0.00286125 0.0745842 0.0258387 0.00241199 0.0826618 0.0241917 0.00286609 
0.0864743 0.0256906 0.00288459 0.0994708 0.0248532 0.00260231 0.105919 0.0240679 0.00276112 
0.1136 0.0255292 0.0024826 0.0237464 0.0279559 0.00248587 0.0544553 0.0274076 0.00283959 
0.0709526 0.0279515 0.00290443 0.0789732 0.0276578 0.00303476 0.0898641 0.0285187 0.00282475 
0.0946849 0.0279556 0.00310971 0.102974 0.0280707 0.00298157 0.109514 0.0270494 0.00286296 
0.121303 0.0272082 0.00278511 0.0304919 0.0297598 0.00297727 0.0351835 0.0294694 0.00267208 
0.0481272 0.0293997 0.0028868 0.0662013 0.0293196 0.00268333 0.0858686 0.0303134 0.00278308 
0.0989847 0.0295876 0.00246514 0.116676 0.0292476 0.00280624 0.0262045 0.0319823 0.00258172 
0.0380898 0.0328921 0.00304443 0.0430993 0.0308732 0.00261076 0.0569767 0.0312341 0.0029036 
0.0615065 0.0320512 0.00246815 0.0739195 0.0320561 0.00275528 0.0810587 0.0324311 0.00275229 
0.0904544 0.0334771 0.00293483 0.0951795 0.0324792 0.00252367 0.1059 0.0315505 0.00277891 
0.11073 0.0319323 0.00251758 0.114782 0.0329973 0.00260433 0.120991 0.0318458 0.00256889 
0.0416738 0.035606 0.00293759 0.0496621 0.034617 0.00290713 0.0543212 0.0343852 0.00271802 
0.0657946 0.0339778 0.00257446 0.0842035 0.0357757 0.00255762 0.0981144 0.0353844 0.00257745 
0.102575 0.0341182 0.00291913 0.118828 0.0357399 0.00245331 0.0276612 0.0361111 0.00302618 
0.033008 0.03655 0.00289075 0.0375192 0.0372661 0.0025581 0.0465074 0.0371489 0.0031544 
0.0602649 0.0365853 0.00257872 0.0701281 0.0360362 0.0026378 0.0754479 0.035978 0.00278916 
0.079964 0.0374372 0.00302639 0.106533 0.0359537 0.00252132 0.114791 0.0373517 0.0027954 
0.122954 0.0378972 0.00279366 0.0266688 0.0403393 0.00261829 0.0432732 0.0398317 0.00235029 
0.0527876 0.0386909 0.00255759 0.0644475 0.0384298 0.00299619 0.0720781 0.040386 0.00247761 
0.086041 0.0393688 0.00245947 0.090825 0.0398489 0.00293709 0.0965853 0.0401738 0.00290233 
0.101161 0.0384605 0.00257432 0.110762 0.038505 0.00264381 0.118519 0.0402749 0.00267798 
0.0306795 0.0411943 0.00307208 0.0351111 0.0409915 0.00260323 0.0394426 0.041598 0.0031344 
0.0488671 0.0410211 0.00262402 0.0563869 0.041958 0.00250649 0.060905 0.0411189 0.00318123 
0.0680029 0.0414735 0.00267801 0.0769736 0.0412819 0.00263161 0.101706 0.0423458 0.00288541 
0.105764 0.0404935 0.00281296 0.114218 0.0414554 0.00258504 0.122583 0.0425892 0.00278938 
0.0244621 0.0439007 0.00254765 0.0508875 0.044956 0.00244896 0.0642612 0.0443954 0.00277135 
0.0805777 0.0443354 0.00272789 0.0858359 0.0437 0.00308628 0.0921823 0.0441137 0.00292501 
0.106637 0.0452792 0.00239617 0.110522 0.0434277 0.00255139 0.0312043 0.0452228 0.00258654 
0.0363641 0.0456587 0.00294112 0.041438 0.0457608 0.00256591 0.0473338 0.0472138 0.00288639 
0.0551763 0.0458861 0.00268905 0.0598267 0.0463604 0.00296721 0.0682484 0.0467623 0.00296931 
0.0762065 0.0454205 0.0024938 0.0975666 0.045687 0.00249535 0.102398 0.0465257 0.00312883 
0.115194 0.0456494 0.00253367 0.119994 0.0461458 0.00264489 0.0253578 0.0483089 0.00285896 
0.0332302 0.0491511 0.00260343 0.0553134 0.0500219 0.00308695 0.0645545 0.0488848 0.00238551 
0.0724218 0.0480878 0.00266097 0.0798687 0.0495015 0.00265517 0.0836674 0.0473969 0.002397 
0.0896385 0.0497041 0.0026822 0.0942359 0.0483787 0.00261221 0.0995317 0.04965 0.00261433 
0.105842 0.0498255 0.00302392 0.116646 0.0499722 0.00304942 0.0379213 0.0499725 0.0027898 
0.0422077 0.0505864 0.00308195 0.046763 0.0514935 0.00242053 0.0509167 0.0504849 0.00252471 
0.0601139 0.0506558 0.00281047 0.0705387 0.0519288 0.00242641 0.0854862 0.0514189 0.00315051 
0.110493 0.0495733 0.00272419 0.0292584 0.0524504 0.00291759 0.0346189 0.0533884 0.00296095 
0.0567973 0.0541344 0.00266562 0.0659492 0.0534675 0.00276037 0.0754463 0.0524215 0.00264953 
0.0947362 0.0525823 0.00298304 0.101265 0.0537124 0.00298858 0.109293 0.0541251 0.00280338 
0.121681 0.0524989 0.00289597 0.0394971 0.0545575 0.00291971 0.0437633 0.0550763 0.00250586 
0.0481437 0.0556328 0.00312817 0.0524122 0.05513 0.00262923 0.0714134 0.05628 0.00293444 
0.0802669 0.0546546 0.00286502 0.0871521 0.0557692 0.00252361 0.0924141 0.0568966 0.00272815 
0.10563 0.0566774 0.00281568 0.113567 0.055886 0.00279998 0.0236287 0.0566266 0.00270863 
0.033311 0.0574365 0.00303334 0.0389354 0.0593771 0.00278126 0.0558362 0.0584372 0.00245015 
0.0606511 0.0569915 0.00261393 0.0652029 0.0577647 0.00267836 0.0756294 0.0573781 0.00239236 
0.0973884 0.0571436 0.00281947 0.101922 0.0584897 0.00285108 0.109525 0.059024 0.00275201 
0.117917 0.0571936 0.00274335 0.025136 0.0611384 0.00272902 0.0345598 0.0611959 0.00257752 
0.0440917 0.0595285 0.00267043 0.0487671 0.0605432 0.00298654 0.076078 0.0617938 0.00274142 
0.0806779 0.060556 0.00295732 0.0849933 0.0596621 0.00292975 0.0898676 0.0606039 0.00256664 
0.0947918 0.0612976 0.00278036 0.113774 0.0609258 0.0024602 0.121296 0.0605583 0.00288046 
0.0301054 0.0615196 0.00246999 0.0419987 0.0629346 0.00247216 0.0602206 0.0619762 0.00304335 
0.0686201 0.0611297 0.00309386 0.100301 0.06234 0.00265638 0.106135 0.0623877 0.00299157 
0.0340239 0.0661872 0.00291997 0.0377263 0.0636936 0.00249993 0.0553472 0.0650073 0.00250072 
0.0642796 0.0644644 0.00299926 0.0728958 0.0643179 0.00242176 0.0869455 0.0639325 0.00262209 
0.0911412 0.0657293 0.00285799 0.110477 0.0649425 0.00292636 0.118194 0.0642163 0.00269194 
0.0252395 0.0665127 0.00258984 0.0389717 0.0678363 0.00304499 0.0445134 0.0663994 0.00287481 
0.048771 0.0680809 0.00269121 0.0601124 0.0667846 0.00281221 0.0690449 0.0660928 0.00279804 
0.0759229 0.0674137 0.00249082 0.0825891 0.0663265 0.00304331 0.0960512 0.0660285 0.0027478 
0.0999327 0.0680639 0.00245953 0.104489 0.0670176 0.00297681 0.114934 0.0676687 0.00245388 
0.121775 0.0673193 0.00270694 0.0527275 0.0687487 0.00250517 0.0569279 0.0702672 0.00280448 
0.0654291 0.0692178 0.0026801 0.0707425 0.0706775 0.00250432 0.0874484 0.0684003 0.00274376 
0.108768 0.0689971 0.00284588 0.118412 0.0704418 0.00276424 0.0252104 0.0705662 0.00291694 
0.0306099 0.0718501 0.00275352 0.0375658 0.0721526 0.00249015 0.0442364 0.0710408 0.0027572 
0.0504111 0.072811 0.00304344 0.0620237 0.0715898 0.00272857 0.0782648 0.0715093 0.00255435 
0.0831967 0.0707183 0.00261699 0.0880262 0.0728901 0.00249504 0.0932692 0.0703553 0.00295299 
0.101569 0.0718764 0.00267393 0.106097 0.0728193 0.0029082 0.0340684 0.075183 0.00270767 
0.0412856 0.0750471 0.00284404 0.0580394 0.0745072 0.00294038 0.0672605 0.0735201 0.00258436 
0.0737859 0.0738084 0.00265942 0.0836333 0.0753113 0.00259119 0.0970209 0.0735648 0.00290736 
0.110682 0.0736188 0.00262189 0.115026 0.0745406 0.00251705 0.0257471 0.0748625 0.00312344 
0.0461587 0.0754639 0.00281563 0.0509359 0.07752 0.00280115 0.0640537 0.0760816 0.00276833 
0.0787334 0.0760023 0.00284771 0.0931688 0.0760641 0.00269764 0.100911 0.076395 0.00281043 
0.119572 0.0763549 0.0027597 0.0275846 0.0788745 0.00243868 0.0318238 0.0798099 0.00285841 
0.0395248 0.0789198 0.00281271 0.0455344 0.0800452 0.00285411 0.0551378 0.0783057 0.0029888 
0.0600231 0.0780414 0.00238393 0.0663154 0.0799634 0.00262077 0.0706409 0.0775944 0.00250243 
0.0752799 0.0784851 0.00297175 0.0851713 0.0788948 0.002578 0.0895266 0.0787319 0.00294365 
0.0971179 0.0787095 0.00255393 0.109344 0.0777657 0.00284742 0.0579565 0.0819768 0.00313907 
0.0793554 0.081125 0.00246199 0.0998865 0.0818264 0.00303307 0.103919 0.0807125 0.0024939 
0.112462 0.0814608 0.002867 0.117204 0.0818697 0.00245374 0.12179 0.0802823 0.00267896 
0.0271437 0.0832298 0.00276773 0.0351465 0.0829209 0.00256029 0.0418868 0.0828962 0.00270654 
0.0489114 0.0836319 0.00284686 0.0534655 0.083272 0.00272855 0.0655821 0.0841836 0.00276242 
0.0702546 0.0824568 0.00253525 0.0750497 0.0834283 0.00286333 0.0830483 0.0828838 0.00260758 
0.0878124 0.0831786 0.00276554 0.0945825 0.0824212 0.00285271 0.107904 0.0821508 0.00298763 
0.0253339 0.0866046 0.00298186 0.0450455 0.0860654 0.00297932 0.0600865 0.0858175 0.00284046 
0.0724057 0.0869054 0.0027108 0.100169 0.0860621 0.0027131 0.107115 0.0867271 0.00258259 
0.111762 0.0865943 0.00277603 0.116241 0.0867992 0.00261619 0.120666 0.0850849 0.00275937 
0.0300882 0.086987 0.0025527 0.0356185 0.0877552 0.00275862 0.0403122 0.0879869 0.00299102 
0.0513561 0.0875912 0.00299655 0.0557028 0.087384 0.00268387 0.0638669 0.0880421 0.0028924 
0.0844629 0.0870909 0.00255494 0.0928241 0.0865723 0.00275193 0.0967855 0.0887679 0.00274246 
0.0236003 0.090016 0.00259037 0.0567843 0.091773 0.00293272 0.0692993 0.090219 0.00286118 
0.0792234 0.0899921 0.00288405 0.0878726 0.0900415 0.00263617 0.0916353 0.0912699 0.0024714 
0.104806 0.0902487 0.00280753 0.114213 0.0908459 0.0025113 0.121788 0.0910179 0.00286672 
0.0252637 0.0941218 0.00255459 0.0304473 0.0929188 0.00272295 0.0511258 0.0916872 0.00305162 
0.0631723 0.0920411 0.00313288 0.0733203 0.0923773 0.00306978 0.0833233 0.0921185 0.00258555 
0.0956163 0.0932364 0.00292782 0.100383 0.092517 0.00282977 0.109353 0.0912675 0.00258998 
0.118068 0.0930836 0.00320933 0.0355555 0.0944508 0.00254524 0.0431679 0.0940217 0.00274831 
0.0479963 0.0951238 0.00230348 0.0633428 0.0960274 0.00246586 0.0689231 0.0945557 0.00255226 
0.0776403 0.0942943 0.00289735 0.0920382 0.0958866 0.00265405 0.106239 0.094916 0.00252898 
0.111318 0.0955984 0.00308187 0.0244036 0.0988264 0.00290443 0.0403843 0.097895 0.00303372 
0.0557681 0.0955632 0.00293205 0.0596599 0.0979857 0.00257725 0.0735017 0.0971068 0.00262121 
0.0796664 0.0980501 0.00272665 0.0839113 0.0965573 0.00285366 0.0880697 0.0971137 0.00250839 
0.0971059 0.0972902 0.00279297 0.101795 0.0983416 0.00267428 0.120657 0.0973883 0.00267576 
0.0291559 0.0990252 0.00260491 0.0352972 0.0993601 0.00284699 0.0482826 0.0996152 0.00297736 
0.0530986 0.0990933 0.00291228 0.0655011 0.0993204 0.00280634 0.0697317 0.099382 0.00300398 
0.0758825 0.101334 0.00275697 0.110334 0.100271 0.00304674 0.0438486 0.100957 0.00256021 
0.0511257 0.102855 0.0030969 0.0571847 0.101689 0.00289525 0.0628578 0.103318 0.00278379 
0.0814993 0.10202 0.00299702 0.0873778 0.101798 0.00253408 0.0948695 0.100827 0.00257167 
0.0994729 0.1026 0.00250563 0.10594 0.101873 0.00245339 0.114303 0.102113 0.00289111 
0.118591 0.10138 0.0030248 0.0254488 0.104381 0.00250569 0.0312968 0.104179 0.00281083 
0.0380706 0.10483 0.00248297 0.0425993 0.105389 0.00288097 0.046914 0.104286 0.00241772 
0.069571 0.103375 0.0029711 0.092984 0.105714 0.00296246 0.102795 0.105153 0.00247027 
0.111654 0.105531 0.00289063 0.122658 0.104506 0.00273814 0.0503914 0.10712 0.00271503 
0.058989 0.106719 0.00296196 0.0661117 0.106712 0.00245512 0.0728536 0.106456 0.0025824 
0.0823986 0.106749 0.00263155 0.08846 0.10647 0.00260143 0.107015 0.106694 0.00283911 
0.117542 0.107399 0.00252262 0.0241366 0.109628 0.00250066 0.030548 0.108981 0.00266469 
0.0362672 0.10866 0.00248887 0.0628354 0.110127 0.00271037 0.0971697 0.108826 0.00256386 
0.103098 0.109735 0.00309823 0.112341 0.109998 0.00262062 0.0407497 0.110045 0.00278479 
0.0451533 0.110953 0.00274842 0.0503311 0.111463 0.00266642 0.068999 0.111663 0.0029044 
0.0737996 0.111805 0.00258281 0.0777703 0.109818 0.00283654 0.0820906 0.111368 0.00311523 
0.0867033 0.110733 0.00278269 0.0913566 0.110564 0.00265792 0.107964 0.112196 0.00265606 
0.119681 0.111578 0.00263784 0.027586 0.113933 0.00255134 0.0339872 0.11278 0.00273044 
0.0393171 0.114412 0.00270312 0.0570258 0.113548 0.00255618 0.0636112 0.114745 0.00262386 
0.0987978 0.113775 0.00267219 0.103202 0.114463 0.00262784 0.11305 0.114673 0.00275147 
0.0319186 0.116513 0.00304907 0.046857 0.116224 0.00248711 0.0528599 0.115782 0.00289857 
0.066719 0.117321 0.00284142 0.0709738 0.116593 0.00295899 0.0753856 0.116427 0.00253451 
0.0807357 0.115663 0.00256758 0.0849302 0.116644 0.00249988 0.0892299 0.11497 0.00287665 
0.0425153 0.118094 0.00249449 0.0596646 0.11894 0.00249447 0.0784802 0.11918 0.00248297 
0.0892243 0.119556 0.00244253 0.0928969 0.117822 0.00292658 0.0977556 0.118281 0.00234762 
0.0233595 0.120491 0.00288317 0.0285343 0.121719 0.00243807 0.0348288 0.120579 0.00281756 
0.039388 0.121836 0.00238336 0.0453263 0.122285 0.00276152 0.0498523 0.119553 0.00257816 
0.0549209 0.120269 0.00264478 0.0637134 0.120861 0.00258965 0.085137 0.12144 0.00277194 
0.103019 0.119504 0.00270291 0.107603 0.120906 0.00297377 0.111989 0.1214 0.00274274 
0.116301 0.12031 0.00288969 0.075303 0.122434 0.0024988 0.0810765 0.122651 0.00271863 
0.0978371 0.122942 0.00306528 
VERTICES 415 830
1 0 
1 1 
1 2 
1 3 
1 4 
1 5 
1 6 
1 7 
1 8 
1 9 
1 10 
1 11 
1 12 
1 13 
1 14 
1 15 
1 16 
1 17 
1 18 
1 19 
1 20 
1 21 
1 22 
1 23 
1 24 
1 25 
1 26 
1 27 
1 28 
1 29 
1 30 
1 31 
1 32 
1 33 
1 34 
1 35 
1 36 
1 37 
1 38 
1 39 
1 40 
1 41 
1 42 
1 43 
1 44 
1 45 
1 46 
1 47 
1 48 
1 49 
1 50 
1 51 
1 52 
1 53 
1 54 
1 55 
1 56 
1 57 
1 58 
1 59 
1 60 
1 61 
1 62 
1 63 
1 64 
1 65 
1 66 
1 67 
1 68 
1 69 
1 70 
1 71 
1 72 
1 73 
1 74 
1 75 
1 76 
1 77 
1 78 
1 79 
1 80 
1 81 
1 82 
1 83 
1 84 
1 85 
1 86 
1 87 
1 88 
1 89 
1 90 
1 91 
1 92 
1 93 
1 94 
1 95 
1 96 
1 97 
1 98 
1 99 
1 100 
1 101 
1 102 
1 103 
1 104 
1 105 
1 106 
1 107 
1 108 
1 109 
1 110 
1 111 
1 112 
1 113 
1 114 
1 115 
1 116 
1 117 
1 118 
1 119 
1 120 
1 121 
1 122 
1 123 
1 124 
1 125 
1 126 
1 127 
1 128 
1 129 
1 130 
1 131 
1 132 
1 133 
1 134 
1 135 
1 136 
1 137 
1 138 
1 139 
1 140 
1 141 
1 142 
1 143 
1 144 
1 145 
1 146 
1 147 
1 148 
1 149 
1 150 
1 151 
1 152 
1 153 
1 154 
1 155 
1 156 
1 157 
1 158 
1 159 
1 160 
1 161 
1 162 
1 163 
1 164 
1 165 
1 166 
1 167 
1 168 
1 169 
1 170 
1 171 
1 172 
1 173 
1 174 
1 175 
1 176 
1 177 
1 178 
1 179 
1 180 
1 181 
1 182 
1 183 
1 184 
1 185 
1 186 
1 187 
1 188 
1 189 
1 190 
1 191 
1 192 
1 193 
1 194 
1 195 
1 196 
1 197 
1 198 
1 199 
1 200 
1 201 
1 202 
1 203 
1 204 
1 205 
1 206 
1 207 
1 208 
1 209 
1 210 
1 211 
1 212 
1 213 
1 214 
1 215 
1 216 
1 217 
1 218 
1 219 
1 220 
1 221 
1 222 
1 223 
1 224 
1 225 
1 226 
1 227 
1 228 
1 229 
1 230 
1 231 
1 232 
1 233 
1 234 
1 235 
1 236 
1 237 
1 238 
1 239 
1 240 
1 241 
1 242 
1 243 
1 244 
1 245 
1 246 
1 247 
1 248 
1 249 
1 250 
1 251 
1 252 
1 253 
1 254 
1 255 
1 256 
1 257 
1 258 
1 259 
1 260 
1 261 
1 262 
1 263 
1 264 
1 265 
1 266 
1 267 
1 268 
1 269 
1 270 
1 271 
1 272 
1 273 
1 274 
1 275 
1 276 
1 277 
1 278 
1 279 
1 280 
1 281 
1 282 
1 283 
1 284 
1 285 
1 286 
1 287 
1 288 
1 289 
1 290 
1 291 
1 292 
1 293 
1 294 
1 295 
1 296 
1 297 
1 298 
1 299 
1 300 
1 301 
1 302 
1 303 
1 304 
1 305 
1 306 
1 307 
1 308 
1 309 
1 310 
1 311 
1 312 
1 313 
1 314 
1 315 
1 316 
1 317 
1 318 
1 319 
1 320 
1 321 
1 322 
1 323 
1 324 
1 325 
1 326 
1 327 
1 328 
1 329 
1 330 
1 331 
1 332 
1 333 
1 334 
1 335 
1 336 
1 337 
1 338 
1 339 
1 340 
1 341 
1 342 
1 343 
1 344 
1 345 
1 346 
1 347 
1 348 
1 349 
1 350 
1 351 
1 352 
1 353 
1 354 
1 355 
1 356 
1 357 
1 358 
1 359 
1 360 
1 361 
1 362 
1 363 
1 364 
1 365 
1 366 
1 367 
1 368 
1 369 
1 370 
1 371 
1 372 
1 373 
1 374 
1 375 
1 376 
1 377 
1 378 
1 379 
1 380 
1 381 
1 382 
1 383 
1 384 
1 385 
1 386 
1 387 
1 388 
1 389 
1 390 
1 391 
1 392 
1 393 
1 394 
1 395 
1 396 
1 397 
1 398 
1 399 
1 400 
1 401 
1 402 
1 403 
1 404 
1 405 
1 406 
1 407 
1 408 
1 409 
1 410 
1 411 
1 412 
1 413 
1 414 

POINT_DATA 415
FIELD FieldData 7
id 1 415 int
26 35 306 309 396 335 244 197 92 
327 267 139 98 247 412 334 47 165 
68 171 31 373 283 29 36 401 331 
253 395 225 198 30 252 211 312 49 
273 385 19 32 305 124 24 329 310 
141 156 103 186 166 257 187 66 162 
339 7 351 391 120 276 215 264 234 
376 130 256 223 301 268 362 109 259 
261 239 63 144 115 387 70 9 326 
71 206 369 58 367 354 121 403 134 
94 363 240 102 400 399 111 243 51 
258 72 21 17 25 384 75 338 250 
353 392 217 382 116 311 213 358 85 
176 195 356 342 6 95 64 96 113 
201 54 93 325 349 11 53 152 136 
294 212 38 229 202 322 8 224 308 
288 271 12 199 37 343 88 50 410 
154 315 286 77 307 180 182 413 161 
365 316 238 18 355 279 117 411 227 
245 4 324 269 289 137 191 314 142 
260 87 297 173 277 5 131 125 303 
108 149 378 128 296 228 145 207 254 
393 110 405 372 23 360 101 320 390 
27 194 290 226 40 169 236 366 46 
404 79 415 89 408 352 205 350 332 
99 16 270 3 248 204 107 55 184 
45 242 221 143 61 20 344 100 185 
15 129 383 73 317 379 91 280 181 
106 284 41 246 39 56 263 157 210 
287 33 175 97 274 251 28 158 10 
188 345 347 209 132 65 298 126 388 
386 178 293 262 200 172 78 190 22 
122 86 163 394 135 377 291 370 368 
321 340 237 397 337 285 57 406 281 
255 313 123 170 304 218 34 230 409 
69 112 168 282 381 231 275 167 1 
292 133 147 14 295 150 330 104 333 
62 323 328 60 336 203 208 183 302 
42 138 371 374 44 233 357 189 164 
153 84 214 265 90 220 299 216 361 
278 151 48 177 266 319 81 407 193 
414 318 402 159 114 380 160 83 2 
249 140 148 179 272 235 67 118 222 
174 127 300 52 398 13 241 59 348 
119 146 74 375 82 389 232 364 43 
346 196 359 105 76 341 219 80 192 
155 
type 1 415 int
1 1 1 1 1 1 1 1 1 
1 1 1 1 1 1 1 1 1 
1 1 1 1 1 1 1 1 1 
1 1 1 1 1 1 1 1 1 
1 1 1 1 1 1 1 1 1 
1 1 1 1 1 1 1 1 1 
1 1 1 1 1 1 1 1 1 
1 1 1 1 1 1 1 1 1 
1 1 1 1 1 1 1 1 1 
1 1 1 1 1 1 1 1 1 
1 1 1 1 1 1 1 1 1 
1 1 1 1 1 1 1 1 1 
1 1 1 1 1 1 1 1 1 
1 1 1 1 1 1 1 1 1 
1 1 1 1 1 1 1 1 1 
1 1 1 1 1 1 1 1 1 
1 1 1 1 1 1 1 1 1 
1 1 1 1 1 1 1 1 1 
1 1 1 1 1 1 1 1 1 
1 1 1 1 1 1 1 1 1 
1 1 1 1 1 1 1 1 1 
1 1 1 1 1 1 1 1 1 
1 1 1 1 1 1 1 1 1 
1 1 1 1 1 1 1 1 1 
1 1 1 1 1 1 1 1 1 
1 1 1 1 1 1 1 1 1 
1 1 1 1 1 1 1 1 1 
1 1 1 1 1 1 1 1 1 
1 1 1 1 1 1 1 1 1 
1 1 1 1 1 1 1 1 1 
1 1 1 1 1 1 1 1 1 
1 1 1 1 1 1 1 1 1 
1 1 1 1 1 1 1 1 1 
1 1 1 1 1 1 1 1 1 
1 1 1 1 1 1 1 1 1 
1 1 1 1 1 1 1 1 1 
1 1 1 1 1 1 1 1 1 
1 1 1 1 1 1 1 1 1 
1 1 1 1 1 1 1 1 1 
1 1 1 1 1 1 1 1 1 
1 1 1 1 1 1 1 1 1 
1 1 1 1 1 1 1 1 1 
1 1 1 1 1 1 1 1 1 
1 1 1 1 1 1 1 1 1 
1 1 1 1 1 1 1 1 1 
1 1 1 1 1 1 1 1 1 
1 
i 3 415 int
0 0 0 0 0 0 0 0 0 
0 0 0 0 0 0 0 0 0 
0 0 0 0 0 0 0 0 0 
0 0 0 0 0 0 0 0 0 
0 0 0 0 0 0 0 0 0 
0 0 0 0 0 0 0 0 0 
0 0 0 0 0 0 0 0 0 
0 0 0 0 0 0 0 0 0 
0 0 0 0 0 0 0 0 0 
0 0 0 0 0 0 0 0 0 
0 0 0 0 0 0 0 0 0 
0 0 0 0 0 0 0 0 0 
0 0 0 0 0 0 0 0 0 
0 0 0 0 0 0 0 0 0 
0 0 0 0 0 0 0 0 0 
0 0 0 0 0 0 0 0 0 
0 0 0 0 0 0 0 0 0 
0 0 0 0 0 0 0 0 0 
0 0 0 0 0 0 0 0 0 
0 0 0 0 0 0 0 0 0 
0 0 0 0 0 0 0 0 0 
0 0 0 0 0 0 0 0 0 
0 0 0 0 0 0 0 0 0 
0 0 0 0 0 0 0 0 0 
0 0 0 0 0 0 0 0 0 
0 0 0 0 0 0 0 0 0 
0 0 0 0 0 0 0 0 0 
0 0 0 0 0 0 0 0 0 
0 0 0 0 0 0 0 0 0 
0 0 0 0 0 0 0 0 0 
0 0 0 0 0 0 0 0 0 
0 0 0 0 0 0 0 0 0 
0 0 0 0 0 0 0 0 0 
0 0 0 0 0 0 0 0 0 
0 0 0 0 0 0 0 0 0 
0 0 0 0 0 0 0 0 0 
0 0 0 0 0 0 0 0 0 
0 0 0 0 0 0 0 0 0 
0 0 0 0 0 0 0 0 0 
0 0 0 0 0 0 0 0 0 
0 0 0 0 0 0 0 0 0 
0 0 0 0 0 0 0 0 0 
0 0 0 0 0 0 0 0 0 
0 0 0 0 0 0 0 0 0 
0 0 0 0 0 0 0 0 0 
0 0 0 0 0 0 0 0 0 
0 0 0 0 0 0 0 0 0 
0 0 0 0 0 0 0 0 0 
0 0 0 0 0 0 0 0 0 
0 0 0 0 0 0 0 0 0 
0 0 0 0 0 0 0 0 0 
0 0 0 0 0 0 0 0 0 
0 0 0 0 0 0 0 0 0 
0 0 0 0 0 0 0 0 0 
0 0 0 0 0 0 0 0 0 
0 0 0 0 0 0 0 0 0 
0 0 0 0 0 0 0 0 0 
0 0 0 0 0 0 0 0 0 
0 0 0 0 0 0 0 0 0 
0 0 0 0 0 0 0 0 0 
0 0 0 0 0 0 0 0 0 
0 0 0 0 0 0 0 0 0 
0 0 0 0 0 0 0 0 0 
0 0 0 0 0 0 0 0 0 
0 0 0 0 0 0 0 0 0 
0 0 0 0 0 0 0 0 0 
0 0 0 0 0 0 0 0 0 
0 0 0 0 0 0 0 0 0 
0 0 0 0 0 0 0 0 0 
0 0 0 0 0 0 0 0 0 
0 0 0 0 0 0 0 0 0 
0 0 0 0 0 0 0 0 0 
0 0 0 0 0 0 0 0 0 
0 0 0 0 0 0 0 0 0 
0 0 0 0 0 0 0 0 0 
0 0 0 0 0 0 0 0 0 
0 0 0 0 0 0 0 0 0 
0 0 0 0 0 0 0 0 0 
0 0 0 0 0 0 0 0 0 
0 0 0 0 0 0 0 0 0 
0 0 0 0 0 0 0 0 0 
0 0 0 0 0 0 0 0 0 
0 0 0 0 0 0 0 0 0 
0 0 0 0 0 0 0 0 0 
0 0 0 0 0 0 0 0 0 
0 0 0 0 0 0 0 0 0 
0 0 0 0 0 0 0 0 0 
0 0 0 0 0 0 0 0 0 
0 0 0 0 0 0 0 0 0 
0 0 0 0 0 0 0 0 0 
0 0 0 0 0 0 0 0 0 
0 0 0 0 0 0 0 0 0 
0 0 0 0 0 0 0 0 0 
0 0 0 0 0 0 0 0 0 
0 0 0 0 0 0 0 0 0 
0 0 0 0 0 0 0 0 0 
0 0 0 0 0 0 0 0 0 
0 0 0 0 0 0 0 0 0 
0 0 0 0 0 0 0 0 0 
0 0 0 0 0 0 0 0 0 
0 0 0 0 0 0 0 0 0 
0 0 0 0 0 0 0 0 0 
0 0 0 0 0 0 0 0 0 
0 0 0 0 0 0 0 0 0 
0 0 0 0 0 0 0 0 0 
0 0 0 0 0 0 0 0 0 
0 0 0 0 0 0 0 0 0 
0 0 0 0 0 0 0 0 0 
0 0 0 0 0 0 0 0 0 
0 0 0 0 0 0 0 0 0 
0 0 0 0 0 0 0 0 0 
0 0 0 0 0 0 0 0 0 
0 0 0 0 0 0 0 0 0 
0 0 0 0 0 0 0 0 0 
0 0 0 0 0 0 0 0 0 
0 0 0 0 0 0 0 0 0 
0 0 0 0 0 0 0 0 0 
0 0 0 0 0 0 0 0 0 
0 0 0 0 0 0 0 0 0 
0 0 0 0 0 0 0 0 0 
0 0 0 0 0 0 0 0 0 
0 0 0 0 0 0 0 0 0 
0 0 0 0 0 0 0 0 0 
0 0 0 0 0 0 0 0 0 
0 0 0 0 0 0 0 0 0 
0 0 0 0 0 0 0 0 0 
0 0 0 0 0 0 0 0 0 
0 0 0 0 0 0 0 0 0 
0 0 0 0 0 0 0 0 0 
0 0 0 0 0 0 0 0 0 
0 0 0 0 0 0 0 0 0 
0 0 0 0 0 0 0 0 0 
0 0 0 0 0 0 0 0 0 
0 0 0 0 0 0 0 0 0 
0 0 0 0 0 0 0 0 0 
0 0 0 0 0 0 0 0 0 
0 0 0 0 0 0 0 0 0 
0 0 0 0 0 0 0 0 0 
0 0 0 
v 3 415 double
-0.103502 -0.134567 0.00414249 -0.285997 -0.103561 -0.0247371 0.17437 -0.275688 0.0316748 
0.22482 -0.11987 -0.0194758 0.0871663 -0.194942 -0.00241198 -0.109853 -0.230805 -0.00615905 
0.113277 -0.448083 0.0408079 0 0 0 -0.0103774 -0.0201102 -0.0012903 
0 0 0 0.0572961 -0.149711 -0.043343 0.0364058 0.0675565 0.0123523 
0.0227849 -0.0830858 0.0170747 -0.0352403 0.0171201 -0.0218788 0.0710368 -0.178665 -0.00683861 
-0.244357 -0.217189 -0.0188456 -0.314609 0.0792586 -0.0179527 -0.129113 -0.19458 -0.000537158 
-0.105671 0.096165 0.0305371 -0.00909133 0.189158 0.0209972 -0.0798903 -0.124173 0.000274854 
0.0710491 -0.20267 0.0340096 0.270159 0.101688 0.0375237 -0.0717493 0.0505149 0.00870095 
0.153759 -0.0525582 0.0102481 0.153099 -0.0362427 0.0193257 0.151455 0.0943945 -0.0388171 
0.0106205 0.0211798 0.00127455 -0.301897 0.0597167 -0.00714669 -0.27805 0.236902 -0.00629295 
0.0122067 0.203708 -0.041817 -0.0915204 -0.0319301 0.0192228 -0.22887 -0.116648 -0.0341876 
0.110455 0.0600345 0.0276394 0.0857952 -0.208045 -0.0105416 0.154672 -0.236631 0.030554 
0.34497 -0.357828 -0.0370634 0.160289 0.171187 -0.00613966 -0.164033 -0.186593 0.00918671 
-0.273952 0.195742 0.0171442 -0.0678279 -0.223455 -0.0287499 -0.100068 -0.165587 0.00936578 
-0.0456669 -0.100825 -0.0145428 0.101445 -0.265802 -0.00823531 0.30771 -0.119626 -0.00573069 
0.254037 0.0440626 0.0283166 -0.0303505 -0.316709 0.00770153 -0.0461744 -0.0145009 -0.00929896 
0.00346754 -0.01266 -0.00490303 0.0455899 -0.160985 -0.0142452 -0.0615457 -0.0735064 -0.018248 
0.0618183 -0.367199 0.0332109 0.215971 0.0498221 -0.0346065 0.0252617 0.0124191 0.0395998 
-0.094205 -0.281814 0.00762629 -0.0297583 0.0300691 -0.0393914 -0.102812 -0.359961 0.0852638 
0.0688093 0.078729 -0.0134537 0.00701123 -0.00475152 0.000511735 0.102809 -0.0423769 0.00653583 
0.134621 -0.19155 0.0251104 -0.0184645 -0.286141 -0.0171143 -0.194154 -0.105375 0.0420527 
0.218447 -0.0921054 0.00874269 -0.220632 0.00998333 -0.0255733 0.0431437 0.134838 -0.081551 
-0.248552 -0.0713196 -0.0178038 0.0289335 -0.103069 0.0186513 -0.268437 0.00931657 -0.0209839 
0.0218411 -0.0998081 -0.0461803 0.210515 -0.121832 0.0148314 -0.112852 0.193884 0.0110168 
0.0885435 -0.0280208 -0.044476 -0.017643 -0.10578 0.00205628 0.303323 0.0334137 0.00378935 
-0.320362 -0.252607 0.0681154 0.0142817 0.201733 -0.0437316 0.126226 0.177646 0.0532204 
-0.154337 -0.0780765 -0.0156111 0.13813 0.0724571 -0.0270168 0.176898 0.243044 0.0502839 
0.0353048 0.131348 -0.00794234 -0.0129101 0.041433 -0.0100561 -0.182161 -0.0585185 0.0212256 
0.0529215 -0.273085 0.0050363 -0.10521 -0.0779109 -0.0109855 0.20269 0.142847 0.0155715 
-0.170108 0.127872 -0.0302012 -0.228879 0.288103 -0.052689 -0.136716 -0.324796 0.0056745 
0.223017 0.115241 0.00606998 0.060164 -0.0231403 0.0657631 0.0273715 -0.113334 0.0109075 
0.00685301 0.0840408 -0.068082 -0.0204564 0.105328 -0.0162771 -0.176301 -0.0831877 -0.0335272 
0.0383562 0.128496 0.00808979 -0.0406712 -0.410215 -0.0109071 -0.0287292 -0.144849 0.0215724 
0.0560111 0.0783909 -0.0216811 0.222195 -0.166263 0.026864 0.137464 -0.176495 0.0470241 
0.301707 -0.184705 -0.0146456 0.0639944 -0.273734 -0.0157769 -0.191091 0.190918 0.067417 
0.0526544 0.268626 -0.0235781 0.0966647 0.183021 -0.00475283 0.0257539 0.240414 0.0132828 
-0.0449287 -0.0389987 -0.0253988 0.0726966 0.318268 0.0720277 -0.0678431 0.0956766 -0.0552519 
0.274984 -0.169249 -0.00242226 -0.249834 0.086165 0.000380256 -0.111805 -0.0537735 -0.076283 
-0.0817488 0.040181 -0.00291807 0.187377 0.00706768 -0.0201437 -0.232413 0.0855025 -0.0311398 
-0.136553 0.652638 0.0508723 0.0272828 0.293727 0.0223036 -0.0533942 -0.191737 -0.00958559 
0.249844 -0.209893 0.0388083 0.141437 -0.0814584 -0.0512576 -0.127298 -0.00694979 -0.0168272 
0.0319007 0.211842 0.00134084 -0.0371064 0.0404701 -0.0434441 -0.118653 0.237248 0.0689494 
0.220664 -0.15158 -0.00921908 0 0 0 0.0326062 0.12136 0.0221652 
0.00172725 0.0884201 -0.00595277 -0.292089 0.135245 0.0161452 0.0305493 -0.303842 0.00480042 
0.122593 -0.162408 0.0206509 0.0199008 0.176661 0.0172182 0.0362453 -0.182508 0.000273584 
0 0 0 -0.379353 -0.18657 0.0282034 -0.164181 -0.265841 -0.0572337 
0.199304 -0.0773001 0.0701943 0.0099082 -0.130687 -0.0106805 -0.142796 0.294446 0.0540286 
0 0 0 0.0821776 0.330003 -0.0213674 -0.15653 0.0564472 -0.00953084 
-0.0344284 0.14738 0.00103063 0.253781 0.122017 0.000766601 -0.14384 -0.246695 0.00171997 
-0.230308 0.0749597 0.0490614 -0.155681 0.447645 -0.00926552 -0.151172 0.386307 -0.0335378 
0.443294 -0.0903776 -0.00753294 -0.0181122 0.120157 -0.000229695 0.249856 0.0092141 -0.0499993 
-0.0671116 -0.0780608 0.000546695 -0.0367162 0.305664 0.011194 0.0706682 0.0634917 -0.00042943 
-0.087626 -0.154236 -0.00489949 -0.0588638 0.214695 0.00698834 0.0226303 0.239914 -0.0394914 
-0.0581136 0.0561508 0.000605044 0.27904 0.213192 0.0232744 0.321211 0.193317 0.0338722 
-0.0226019 -0.0113073 0.00955831 0.121162 -0.218766 0.0095849 0.0240658 -0.0280695 -0.00667838 
-0.12029 0.353546 -0.00233521 0.11422 -0.165477 -0.0135251 0.245033 -0.0132064 0.0116794 
0.0961098 0.047091 -0.0125896 -0.129744 0.107797 -0.0378808 0.0404872 0.199221 0.0183094 
-0.0750284 -0.355636 0.0232646 -0.0552803 0.188641 -0.00796505 0.12535 -0.334083 0.0117746 
-0.277474 0.26924 0.0265605 -0.130817 -0.163848 -0.0517186 0.154996 -0.305965 -0.0124657 
0.0404588 -0.00671531 0.00174068 -0.248226 0.00180434 -0.0403609 -0.0405649 -0.21069 -0.0225804 
0.306848 0.00701908 0.00877702 -0.139385 0.00561245 0.0222105 -0.129055 0.134031 -0.00627981 
-0.00729345 -0.261494 -0.0174916 0.034455 0.0390112 0.0448857 -0.101002 0.19956 0.0289444 
0.00293237 0.101847 0.00399684 -0.0131934 0.00880872 -0.00146861 0.0149173 -0.078248 0.012268 
0.0659642 -0.0127918 -0.00436654 -0.250763 -0.174875 0.0317227 -0.542214 -0.204515 0.0105608 
-0.214037 -0.133981 -0.056146 0.127194 -0.0529075 0.0201698 0.0212191 0.0147569 -0.0182682 
0.0709931 -0.00736234 -0.000406787 0.274327 -0.154192 -0.0445455 0.0877432 -0.199522 0.000355421 
-0.211631 0.0283645 -0.00385836 0.0448475 -0.0554223 -0.0161287 0.0916131 0.0283409 0.00946067 
0.308791 0.0484828 0.00576437 0.177445 0.00709205 0.0139494 -0.133524 -0.331034 0.0230064 
-0.0169973 -0.00713633 0.000294911 0.0171253 -0.0595012 -0.0284018 -0.0173933 -0.322207 -0.00371168 
-0.143764 0.168694 0.0416759 0.191839 -0.154971 -0.00855484 0.0118037 -0.08281 -0.0107715 
-0.0956202 0.0502879 -0.017734 0.0984332 0.21844 -0.0114653 -0.168334 -0.23206 0.00589333 
-0.172717 0.108497 -0.00930221 0.139099 0.194491 0.0198776 -0.311058 0.245196 0.00523458 
0.0855537 -0.0167865 0.00613621 -0.123468 0.0503234 0.031712 -0.0211285 0.287977 -0.00715939 
0.166378 0.172598 0.00433978 -0.0425444 0.126315 -0.00845743 0.0362432 -0.160885 0.0117817 
0.256923 -0.099979 -0.01516 -0.0431809 0.150609 -0.00919036 -0.152041 -0.291538 0.0497768 
0.00458184 -0.125263 -0.000602489 0.110323 0.422179 -0.00505944 0.0859661 -0.307804 0.0201654 
0.0444186 0.262777 0.0188063 0.00250059 -0.140038 -0.0106061 0.236534 0.285208 0.00814591 
-0.064882 -0.1652 0.00250778 -0.14314 -0.0796898 -0.0768016 0.261053 -0.108569 0.026435 
-0.159424 0.0751016 0.00462765 -0.0370714 0.237762 0.00340569 -0.248966 0.0413131 0.0138981 
-0.0259223 -0.0108769 -0.0832166 -0.0983663 0.130641 -0.00789501 0.0899797 -0.144027 -0.0172425 
0.156567 0.0712695 0.0189128 -0.0559704 -0.0698775 -0.0177357 0.112493 -0.17508 0.0327881 
-0.12312 -0.0146437 -0.0497208 -0.00422736 -0.0784547 0.0104249 -0.28225 0.069519 0.0529819 
0.07912 -0.195819 -0.0206932 0.00437963 0.248544 0.0507173 -0.181434 -0.130446 -0.0485844 
0.15408 -0.0939407 0.0155155 0.311205 -0.144768 -0.0227352 0.128853 -0.0195789 -0.00420164 
0.171256 0.0665093 -0.0104927 0.301118 0.22172 -0.014104 -0.0183745 0.150968 -0.0116791 
-0.201149 -0.183812 -0.0017837 0.0384306 -0.204128 -0.00867886 0.104063 -0.106013 -0.00491518 
-0.25075 0.0406449 -0.00686953 0.0262335 -0.0210625 0.0239444 0.00776113 0.115725 0.00286021 
-0.0878907 0.337137 -0.00336505 -0.0461803 0.0437761 0.00507804 0.0625648 -0.101099 0.0527941 
0.0351226 -0.117531 0.0680656 0.00454329 0.126054 0.00822327 0.126814 -0.0433786 0.00205061 
-0.00245601 0.0340474 -0.00569524 0.30394 -0.266745 -0.0096016 -0.0437789 0.163469 -0.031616 
-0.0774619 0.187913 0.00401996 -0.133152 0.180025 -0.00812086 0.258811 0.0640428 0.0105183 
0.0327492 0.0155929 -0.000966236 -0.140033 -0.00218918 -0.0065862 0.141543 0.00700007 0.00671714 
-0.00782676 -0.103204 0.0164325 -0.178035 -0.0361631 -0.0291901 0.257639 -0.0612131 0.00565025 
-0.19463 0.0118704 -0.00544436 -0.178237 -0.357055 0.00529147 0.0123291 -0.0525987 0.00207613 
0.0154193 0.132725 -0.0607119 0.0839848 0.161779 0.0133142 -0.156761 -0.0596316 0.00781773 
-0.0524885 -0.221802 0.00825422 -0.0641191 0.171605 0.00908036 -0.00533388 0.000600327 -0.0356369 
-0.186599 0.289501 0.00966658 -0.0511961 -0.26136 -0.0321874 -0.072703 -0.0986665 0.00593975 
0.146164 0.228391 -0.0234139 -0.183634 -0.0550818 0.00542821 0.269531 -0.110722 0.0356464 
0.0771812 -0.153051 0.0850227 -0.0634981 -0.409771 0.0314642 0.109876 -0.100408 -0.0153977 
0.0846242 -0.0754416 0.0373757 0.154812 0.0680341 0.00279529 -0.466594 -0.225385 -0.0231072 