ITEM: TIMESTEP
2500
ITEM: NUMBER OF ATOMS
415
ITEM: BOX BOUNDS pp pp pp
0.01375 0.132309
0.01375 0.132309
0 0.0055
ITEM: ATOMS id type x y z ix iy iz vx vy vz fx fy fz omegax omegay omegaz radius 
1 1 0.0436513 0.10349 0.00289461 0 0 0 0.136168 0.11366 0.0218424 3.24324 -0.789399 0.238522 -0.139521 -1.4326 43.3079 0.0025 
2 1 0.0279254 0.118859 0.0027157 0 0 0 -0.0481659 0.0872674 0.00408092 -1.67011 3.02591 0.146519 -0.00323214 -0.00178393 -4.49162e-15 0.0025 
3 1 0.0800776 0.0759862 0.00280999 0 0 0 -0.178117 0.035145 0.00638373 0 0 0 -0.00239851 -0.0619965 0.254043 0.0025 
4 1 0.104744 0.0604873 0.00266083 0 0 0 0 0 0 0 0 0 0 0 0 0.0025 
5 1 0.0402457 0.0648659 0.00281571 0 0 0 0.00282306 0.120491 0.0115426 -4.98094 -1.5272 0.113323 0.699547 0.934032 -22.287 0.0025 
6 1 0.0415081 0.0483775 0.00251073 0 0 0 0.230583 -0.117938 -0.0148264 4.33577 0.350259 -0.325809 -2.02055 2.49556 -11.4054 0.0025 
7 1 0.031972 0.0314311 0.0025951 0 0 0 -8.8082e-06 5.60314e-06 -4.78928e-07 -0.0527608 0.0330977 -0.00291341 -8.48171e-05 -6.99725e-05 0.000741296 0.0025 
8 1 0.081437 0.0516839 0.00286502 0 0 0 0 0 0 0 0 0 0 0 0 0.0025 
9 1 0.0534501 0.0364612 0.00257631 0 0 0 -0.064214 0.0279282 -0.0206543 3.65396 5.87485 -0.0252305 -3.75898 -1.12844 20.8953 0.0025 
10 1 0.112801 0.0882913 0.00263517 0 0 0 -0.0210937 0.0621102 -0.0028951 -1.66609 4.9104 -0.236005 -0.389528 -0.2746 -3.04589 0.0025 
11 1 0.0757892 0.0499842 0.00263224 0 0 0 0.0025147 -0.159459 0.00417626 0.0876277 -3.47815 0.085943 -0.109891 -0.0037749 -0.0665553 0.0025 
12 1 0.0158826 0.0543922 0.00270611 0 0 0 -0.0018813 -0.00324997 2.20761e-05 -0.572605 -0.989699 0.00671802 0.0149496 -0.00635397 0.338576 0.0025 
13 1 0.0917461 0.121832 0.0028022 0 0 0 0.0888983 -0.0543403 0.0170975 -2.68779 3.20735 0.208689 0.444025 1.03453 2.45598 0.0025 
14 1 0.0758315 0.105161 0.00275531 0 0 0 0.0955598 0.136967 0.00185068 1.71899 2.64254 0.0234029 0.121372 -0.0676361 -1.20658 0.0025 
15 1 0.100707 0.0788568 0.00263742 0 0 0 0.146435 0.294614 -0.0137647 3.64474 2.75898 -0.165262 -0.390381 1.32412 44.9171 0.0025 
16 1 0.0465662 0.0771461 0.00281228 0 0 0 0.209212 0.161763 -0.00172257 3.19749 4.80627 -0.0756591 -0.020395 -0.0352361 -24.557 0.0025 
17 1 0.0757361 0.0417449 0.00251988 0 0 0 0.143574 -0.11797 -0.00377632 4.85139 -4.00221 -0.131937 0.585196 0.490388 6.90557 0.0025 
18 1 0.0984568 0.0583907 0.00278357 0 0 0 0.0411829 0.163127 0.000418135 -1.06798 4.39734 -0.0144422 0.0799611 -0.0205793 -6.35641 0.0025 
19 1 0.0826131 0.0261543 0.00273981 0 0 0 -0.00283437 -0.00313744 0.000142777 -0.696819 -0.771328 0.0352972 5.51569e-07 -4.98288e-07 -7.4778e-17 0.0025 
20 1 0.0700234 0.0787371 0.00255112 0 0 0 -0.0730562 -0.0607575 -0.0134142 5.00273 -1.93842 -0.0491211 0.248333 0.93485 -5.2478 0.0025 
21 1 0.0674127 0.0427181 0.0029201 0 0 0 -0.000502023 -0.000230284 3.35821e-05 -0.381665 -0.174085 0.0255218 -0.00111559 -0.00308464 -0.0378301 0.0025 
22 1 0.0950521 0.0941373 0.00253478 0 0 0 -0.0603218 0.00804103 -0.00497181 -3.70283 0.850019 -0.314344 0.574051 -0.390637 -4.62589 0.0025 
23 1 0.125273 0.0704438 0.00273653 0 0 0 0.113492 -0.141196 0.00681207 0.790476 -0.983435 0.0532215 0.0320118 0.0257308 1.49695e-12 0.0025 
24 1 0.116481 0.0253544 0.00254612 0 0 0 0.0768957 0.00622723 -0.00330416 3.39406 0.274861 -0.150045 0.000144772 -0.00178769 1.90955e-14 0.0025 
25 1 0.101491 0.0415043 0.00250764 0 0 0 0 0 0 0 0 0 0 0 0 0.0025 
26 1 0.0483579 0.0162722 0.00297806 0 0 0 0 0 0 0 0 0 0 0 0 0.0025 
27 1 0.047113 0.0724295 0.00295405 0 0 0 -0.023267 0.000783906 0.00764784 -2.01882 1.86135 0.48078 0.542753 0.290893 -13.2184 0.0025 
28 1 0.0722829 0.0891484 0.00271556 0 0 0 0 0 0 0 0 0 0 0 0 0.0025 
29 1 0.115457 0.0195875 0.0028586 0 0 0 0 0 0 0 0 0 0 0 0 0.0025 
30 1 0.124367 0.0220051 0.00275528 0 0 0 -0.122399 0.0462639 0.0133985 -5.37568 -0.504467 0.111881 0.649072 2.09889 -33.9961 0.0025 
31 1 0.0934487 0.0217889 0.00284262 0 0 0 -0.151121 -0.0562727 -0.00369179 -6.23791 -2.63182 -0.161979 -0.0180487 -1.74446 -6.51609 0.0025 
32 1 0.0938929 0.0264982 0.00289506 0 0 0 -0.0538847 0.0742356 0.0044573 -3.10133 3.40013 0.241537 0.0256892 0.0265772 -3.15256 0.0025 
33 1 0.0981008 0.0838932 0.00285024 0 0 0 0 0 0 0 0 0 0 0 0 0.0025 
34 1 0.0530527 0.100273 0.00289709 0 0 0 0.0641334 -0.138545 0.00126096 -0.349082 -5.19659 0.168193 0.100918 0.139976 6.89109 0.0025 
35 1 0.0649901 0.0158171 0.00253272 0 0 0 -0.0626417 -0.0211622 -0.00510938 -4.05657 -1.35787 -0.338853 1.36111 -0.608485 -14.1595 0.0025 
36 1 0.128714 0.0199702 0.00277295 0 0 0 0.0497029 -0.0217541 0.00102607 2.29242 -1.17286 0.0541208 0.251311 0.524328 -0.994432 0.0025 
37 1 0.0337649 0.0560329 0.00280175 0 0 0 -0.0196762 0.0670635 -0.00110007 -1.67459 5.73706 -0.0979286 0.0525216 -0.0231095 -2.34725 0.0025 
38 1 0.0395446 0.0528575 0.00259886 0 0 0 -0.0693105 0.014092 -0.00202236 -1.77592 -6.94014 -0.434251 0.974606 -0.348172 -3.82674 0.0025 
39 1 0.0504979 0.0854941 0.00273455 0 0 0 -0.107921 -0.147876 0.000209825 -0.766606 -0.950879 -0.000102814 -0.00483301 0.00393481 0.268381 0.0025 
40 1 0.0903194 0.0725991 0.00250782 0 0 0 0 0 0 0 0 0 0 0 0 0.0025 
41 1 0.036751 0.0842179 0.0027168 0 0 0 0.00170051 0.00301391 -6.24354e-05 0.463642 0.82174 -0.0171087 2.09137e-07 -1.17999e-07 -1.8766e-17 0.0025 
42 1 0.0330032 0.110208 0.00252163 0 0 0 -0.123062 0.00288355 -0.00723685 -3.29369 0.0772185 -0.201913 0.000224185 0.0100691 0.000191945 0.0025 
43 1 0.0459661 0.126994 0.0025763 0 0 0 0 0 0 0 0 0 0 0 0 0.0025 
44 1 0.0964067 0.110401 0.00292396 0 0 0 -0.0682414 0.171725 0.0108618 -0.134467 0.338377 0.0287994 -0.0900385 -0.0357802 5.5056e-13 0.0025 
45 1 0.0343307 0.0799284 0.00280612 0 0 0 -0.00170051 -0.00301391 6.24354e-05 -0.463642 -0.82174 0.0171087 2.09137e-07 -1.17999e-07 -1.8766e-17 0.0025 
46 1 0.0283336 0.0751113 0.00269946 0 0 0 -0.00739604 0.00533918 6.41841e-05 -1.69922 1.23347 0.0163067 0.0761632 0.110997 -0.457469 0.0025 
47 1 0.0169387 0.0203056 0.00253545 0 0 0 -0.269356 0.0934928 -0.0118864 -4.28312 1.24094 -0.204654 0.959533 0.393897 -18.4393 0.0025 
48 1 0.101072 0.114614 0.00256386 0 0 0 0 0 0 0 0 0 0 0 0 0.0025 
49 1 0.0543661 0.0246133 0.00284755 0 0 0 -0.0506234 0.0266409 0.00606839 -1.39344 1.74013 0.237973 0.0117054 -0.0347178 0.0311514 0.0025 
50 1 0.063957 0.0552249 0.00267835 0 0 0 0 0 0 0 0 0 0 0 0 0.0025 
51 1 0.0431535 0.0431907 0.00287295 0 0 0 0 0 0 0 0 0 0 0 0 0.0025 
52 1 0.0821582 0.122409 0.00260739 0 0 0 -0.0406258 0.159972 -0.0133626 0.240341 1.50213 -0.175888 -0.0809183 0.119182 1.41418 0.0025 
53 1 0.0979954 0.0499342 0.00295156 0 0 0 0.0196017 -0.0598215 0.00234673 1.25955 -3.90189 0.155387 -0.201895 0.0913286 4.00848 0.0025 
54 1 0.0221818 0.0491233 0.00291759 0 0 0 0 0 0 0 0 0 0 0 0 0.0025 
55 1 0.0201892 0.0799207 0.00262221 0 0 0 0.129265 -0.0495761 -0.0300669 0.066465 2.42641 -0.799826 -2.91129 -0.184769 -14.8151 0.0025 
56 1 0.0642621 0.0861363 0.0027676 0 0 0 0 0 0 0 0 0 0 0 0 0.0025 
57 1 0.0438779 0.0986971 0.00246053 0 0 0 0.123334 -0.0789358 -0.0295486 -2.45355 3.3174 -0.567281 -1.10031 -0.488915 -12.0044 0.0025 
58 1 0.111235 0.0358783 0.00277319 0 0 0 -0.0983195 -0.0136571 0.0136571 -1.74284 -5.43513 0.162717 -1.42411 0.608143 3.24897 0.0025 
59 1 0.0571258 0.126551 0.00250934 0 0 0 0.0448617 -0.0118585 -0.00116869 2.89414 -0.765022 -0.0769378 -6.54026e-05 -0.000247423 7.57634e-15 0.0025 
60 1 0.103995 0.106988 0.00252778 0 0 0 -0.00887147 0.0462971 -0.00152304 -0.518502 3.18539 -0.107221 0.0136292 0.105594 3.11985 0.0025 
61 1 0.0658896 0.0806176 0.00262532 0 0 0 -0.116391 0.04212 0.000391484 -5.52967 2.02615 0.0246099 0.327512 0.964226 -6.35433 0.0025 
62 1 0.0829274 0.107024 0.00296488 0 0 0 -0.00404591 -0.0213043 0.00135673 -0.414107 -2.18054 0.140698 8.53161e-05 -1.62025e-05 3.04984e-15 0.0025 
63 1 0.125655 0.0351182 0.00268208 0 0 0 -0.105188 -0.0491846 -0.00209098 -2.51212 -1.13942 -0.063563 -0.00407199 0.00849186 0.168749 0.0025 
64 1 0.0582888 0.0470543 0.00277816 0 0 0 -0.0972332 -0.102122 0.014381 -1.14289 -0.408418 0.00172249 -1.44375 1.91719 -43.1016 0.0025 
65 1 0.0348677 0.0903973 0.0029846 0 0 0 0 0 0 0 0 0 0 0 0 0.0025 
66 1 0.126276 0.0295788 0.0025141 0 0 0 -0.154778 -0.0765199 -0.00908774 -0.860576 2.63543 -0.0899609 -0.102129 0.108053 4.8729 0.0025 
67 1 0.0262765 0.124121 0.00298462 0 0 0 -0.210457 -0.192484 0.0126305 -3.14915 -2.63056 0.201414 1.14143 0.0330918 19.3027 0.0025 
68 1 0.0704133 0.0206349 0.00286157 0 0 0 0.031781 -0.0110345 0.00287391 4.35345 -1.42592 0.15396 -0.0782133 -0.102845 1.29504 0.0025 
69 1 0.0813346 0.101918 0.00274044 0 0 0 -0.0229388 0.00698669 -0.000226753 -2.59371 0.784879 -0.0251783 -0.0153849 -0.0628607 -0.380055 0.0025 
70 1 0.0452191 0.0360275 0.00266738 0 0 0 -0.04487 -0.0368358 -0.00568938 -0.177481 0.380495 -0.26502 -0.479608 0.52591 3.74444 0.0025 
71 1 0.0670244 0.0361786 0.00269232 0 0 0 9.12191e-05 7.4667e-05 -6.75432e-06 0.136369 0.111624 -0.0101067 1.10742e-10 -1.35291e-10 -1.84902e-20 0.0025 
72 1 0.056835 0.0419458 0.00291291 0 0 0 0.182472 0.0871896 0.00858326 3.63297 1.80809 0.17775 1.14133 0.920958 -33.4375 0.0025 
73 1 0.0795805 0.0828691 0.00251138 0 0 0 0.150743 -0.0557298 -0.00737417 5.5144 -2.03503 -0.280009 0.12138 1.4487 -8.4449 0.0025 
74 1 0.101287 0.125463 0.00245884 0 0 0 0.127827 -0.131172 -0.0258266 3.12464 2.2772 -0.240652 -2.30154 2.44177 -23.639 0.0025 
75 1 0.122224 0.0409484 0.00258815 0 0 0 -0.170901 -0.120696 -0.0117393 -0.117844 1.16505 -0.179153 -0.0997024 0.370765 -0.756009 0.0025 
76 1 0.113187 0.128535 0.00293095 0 0 0 0.15142 0.0442626 0.00669579 0.697359 0.44922 0.140522 -0.0132875 0.059584 -0.0912186 0.0025 
77 1 0.125377 0.0548933 0.00275027 0 0 0 -0.001123 -0.00126356 -3.80497e-05 -0.441141 -0.497166 -0.0149927 0.00013826 -2.56597e-05 -0.00322669 0.0025 
78 1 0.0802967 0.092979 0.0028754 0 0 0 0 0 0 0 0 0 0 0 0 0.0025 
79 1 0.0558553 0.0746009 0.00289911 0 0 0 0.0405816 -0.112215 0.000654571 -3.82527 3.11082 0.142682 0.245153 0.110791 4.12438 0.0025 
80 1 0.0760288 0.129856 0.00250832 0 0 0 -0.0202586 0.0421603 -0.000498776 -1.38856 2.74219 -0.0364315 0.0510087 0.155541 11.0542 0.0025 
81 1 0.0412179 0.117021 0.00274245 0 0 0 -0.185337 0.0184455 0.00189581 -0.31142 0.140665 0.00303864 0.00511155 -0.0105848 0.559641 0.0025 
82 1 0.0206881 0.129436 0.00248223 0 0 0 0.16702 0.0396435 -0.0120139 1.86028 0.441551 -0.145244 0.0121104 -0.051022 9.59094e-13 0.0025 
83 1 0.0202391 0.120546 0.00255134 0 0 0 0 0 0 0 0 0 0 0 0 0.0025 
84 1 0.0654739 0.111551 0.00250928 0 0 0 -0.0282787 0.0363327 -0.00330169 -2.48163 3.13909 -0.294153 -0.435878 0.0197138 3.95054 0.0025 
85 1 0.104552 0.0458952 0.00270248 0 0 0 -0.165063 -0.0140324 -0.0212038 -1.77713 0.265154 -0.226006 -0.603488 -0.0500229 7.90851 0.0025 
86 1 0.120964 0.0945377 0.002591 0 0 0 -0.145502 -0.150146 -0.0199555 4.25866 -2.39776 -0.117484 3.34651 -2.54069 -16.3849 0.0025 
87 1 0.117244 0.0634071 0.00285425 0 0 0 -0.194207 0.0217113 0.0189516 -1.19556 3.20497 0.18738 2.30116 -0.577969 23.84 0.0025 
88 1 0.0575851 0.054868 0.00263764 0 0 0 0.0699598 -0.0772019 -0.00471617 5.64387 -3.1509 -0.152402 0.148226 -0.46626 -7.54994 0.0025 
89 1 0.0737563 0.0737702 0.00265607 0 0 0 0 0 0 0 0 0 0 0 0 0.0025 
90 1 0.0909919 0.111863 0.00260423 0 0 0 0 0 0 0 0 0 0 0 0 0.0025 
91 1 0.118518 0.0832668 0.00283277 0 0 0 0.0129653 -0.143907 0.00902258 3.59555 -0.823336 -0.0214729 -0.792638 -0.718054 -27.1238 0.0025 
92 1 0.0416071 0.0173722 0.00262534 0 0 0 0 0 0 0 0 0 0 0 0 0.0025 
93 1 0.0284031 0.0497903 0.00291054 0 0 0 -0.0140955 0.0510654 0.00725096 -0.361174 2.78832 0.257543 0.203748 -0.00814021 0.300733 0.0025 
94 1 0.0812237 0.0391985 0.00271975 0 0 0 0.136008 0.12733 0.00209718 0.000197372 6.02518e-05 -3.86523e-06 -0.0382356 0.0241959 0.930275 0.0025 
95 1 0.0475696 0.0468302 0.00254171 0 0 0 0 0 0 0 0 0 0 0 0 0.0025 
96 1 0.069811 0.0485207 0.00253043 0 0 0 0.0847884 0.0478154 -0.0154901 3.89515 -3.57864 -0.508308 0.540545 1.77466 -22.134 0.0025 
97 1 0.0176012 0.0887343 0.00287815 0 0 0 -0.0765584 0.213061 0.00843234 1.5501 -3.40446 0.316012 -0.600339 -0.303225 9.41101 0.0025 
98 1 0.088755 0.0180507 0.00285614 0 0 0 -0.0101734 0.00485032 0.000804249 -1.49213 0.711395 0.119056 -8.03733e-06 -1.6858e-05 1.5115e-16 0.0025 
99 1 0.042109 0.0758693 0.00281401 0 0 0 -0.0931499 0.0942514 0.00152307 -2.55758 -0.523154 -0.000845269 -0.0568357 0.1098 -3.1126 0.0025 
100 1 0.0871895 0.0802981 0.00259704 0 0 0 0.0072093 -0.018467 3.35561e-06 1.01434 -2.57032 0.000342242 0.0159286 0.00652769 1.7023 0.0025 
101 1 0.0237563 0.0716612 0.00275345 0 0 0 0 0 0 0 0 0 0 0 0 0.0025 
102 1 0.112429 0.0402512 0.00254402 0 0 0 -0.142223 0.206514 -0.0184862 -0.813178 1.29512 -0.716755 -0.662426 1.54075 11.7482 0.0025 
103 1 0.0510286 0.028609 0.00272581 0 0 0 0.0976935 -0.158879 0.00136849 3.16465 -2.92924 -0.029779 -0.246015 -0.108861 -3.46638 0.0025 
104 1 0.0546273 0.106107 0.00288724 0 0 0 0 0 0 0 0 0 0 0 0 0.0025 
105 1 0.108562 0.12721 0.00272813 0 0 0 -0.157024 -0.0449841 -0.00655944 -2.27697 -0.651893 -0.101628 -0.00611856 0.0212627 0.000619356 0.0025 
106 1 0.0194419 0.0843411 0.00277207 0 0 0 0.0366884 0.108189 0.00219688 0.0208277 3.63993 0.0229516 1.27863 0.0427207 5.28097 0.0025 
107 1 0.127157 0.0770435 0.00275786 0 0 0 0 0 0 0 0 0 0 0 0 0.0025 
108 1 0.0765487 0.0669176 0.00250001 0 0 0 -0.0710844 -0.124444 -0.0018151 -1.47571 -2.58345 -0.0396976 -0.00343409 0.00196161 -7.94418e-14 0.0025 
109 1 0.0931267 0.0345644 0.00290028 0 0 0 0.0565581 0.00140952 0.0040379 3.19416 0.0431371 0.230075 -0.024538 -0.0303213 0.350094 0.0025 
110 1 0.070167 0.0695554 0.00254569 0 0 0 0.0519812 0.286021 -0.0104072 -0.172036 2.76217 -0.0797743 -2.00254 -1.05412 -37.1998 0.0025 
111 1 0.030329 0.0406089 0.00291903 0 0 0 0.0294611 0.179425 0.00656641 -0.0851694 0.39741 0.00656395 0.289259 0.276553 -8.3783 0.0025 
112 1 0.0858832 0.100423 0.00280434 0 0 0 -0.0659289 -0.0108974 0.00454493 -0.97769 -0.933168 0.202639 -0.0135872 -0.0589341 -0.340438 0.0025 
113 1 0.0877877 0.047608 0.00299514 0 0 0 -0.139375 -0.0182029 0.0236846 2.26163 0.457007 0.602176 -0.979864 -2.84643 -15.6525 0.0025 
114 1 0.0936529 0.117799 0.00267467 0 0 0 0.0812449 -0.144061 -0.00229469 3.35969 -6.03184 -0.103505 1.15396 0.772279 -7.6583 0.0025 
115 1 0.0290905 0.035799 0.00270939 0 0 0 -0.159171 -0.139976 -0.0166771 1.2297 1.43215 -0.409507 -1.68321 -2.07891 7.36266 0.0025 
116 1 0.081225 0.04561 0.00265502 0 0 0 0 0 0 0 0 0 0 0 0 0.0025 
117 1 0.0225488 0.059549 0.00249874 0 0 0 0.141207 0.0194242 -0.00591191 2.95349 0.407521 -0.13021 0.0016517 -0.0125946 -0.00184909 0.0025 
118 1 0.0415515 0.123841 0.00250564 0 0 0 0.212005 -0.0950139 -0.00357822 3.45922 -1.56771 -0.0697508 -0.512077 -1.4725 8.7025 0.0025 
119 1 0.0911188 0.126566 0.00252717 0 0 0 0.0783885 0.107243 -0.00907398 5.39833 0.122137 -0.297831 -0.587225 1.29332 17.4975 0.0025 
120 1 0.0696552 0.0300556 0.00263767 0 0 0 0 0 0 0 0 0 0 0 0 0.0025 
121 1 0.0169752 0.0390284 0.00257945 0 0 0 -0.00108454 0.00106577 -4.20811e-05 -0.559315 0.552935 -0.0217254 0.0117212 0.00339734 -0.216046 0.0025 
122 1 0.110129 0.0927038 0.00279915 0 0 0 0 0 0 0 0 0 0 0 0 0.0025 
123 1 0.11161 0.0984526 0.00252902 0 0 0 0 0 0 0 0 0 0 0 0 0.0025 
124 1 0.111767 0.0249726 0.00275411 0 0 0 -0.0768957 -0.00622723 0.00330416 -3.39406 -0.274861 0.150045 0.000144772 -0.00178769 1.90955e-14 0.0025 
125 1 0.0580321 0.065771 0.00281268 0 0 0 0 0 0 0 0 0 0 0 0 0.0025 
126 1 0.0533701 0.0894696 0.00272786 0 0 0 0.0602391 0.156102 -0.00163497 -3.77548 0.903841 -0.159186 0.120683 0.0612251 -3.20164 0.0025 
127 1 0.0709713 0.123647 0.00289204 0 0 0 -0.0884158 0.00412213 0.00686895 -2.40817 0.0349969 0.338357 0.262681 0.330922 3.96257 0.0025 
128 1 0.105002 0.0672611 0.00257837 0 0 0 -0.164176 0.0631232 -0.0153096 -2.55999 1.07346 -0.538138 0.097071 -1.08598 -5.67127 0.0025 
129 1 0.115148 0.0790805 0.00284281 0 0 0 0.0277731 -0.178618 -0.00123111 -0.257955 -1.16742 0.00419829 0.192564 -0.0324078 8.56303 0.0025 
130 1 0.0198121 0.0349862 0.00267004 0 0 0 -0.200901 -0.00453546 -0.0111804 -0.432003 1.59312 -0.111906 -0.766163 -0.263795 14.3905 0.0025 
131 1 0.0442933 0.0668509 0.00269709 0 0 0 0.116619 0.0679181 -0.00185802 5.47427 3.11649 -0.0949463 -0.585619 0.845767 -5.85416 0.0025 
132 1 0.0297252 0.0901431 0.00276503 0 0 0 0 0 0 0 0 0 0 0 0 0.0025 
133 1 0.064223 0.103362 0.00279533 0 0 0 0.0245913 -0.00918612 0.00217362 -0.660776 -1.93582 -0.0263392 0.496627 -0.353102 -15.6813 0.0025 
134 1 0.0630179 0.0401573 0.00276656 0 0 0 0 0 0 0 0 0 0 0 0 0.0025 
135 1 0.0242095 0.0963282 0.00270525 0 0 0 -0.164978 -0.049486 0.00480063 -1.86737 -0.560128 0.0589252 0.00595321 -0.019847 -3.26713e-13 0.0025 
136 1 0.115099 0.0511407 0.00279975 0 0 0 -0.013939 0.143353 0.00194966 1.27236 -1.93724 -0.00258429 -0.0340967 -0.0283453 1.79619 0.0025 
137 1 0.0521093 0.0644705 0.00252202 0 0 0 0.090025 -0.156621 -0.00322886 0.398236 -1.59576 -0.0579111 -0.272645 -0.324387 7.8403 0.0025 
138 1 0.0377355 0.110097 0.00281044 0 0 0 0.117535 -0.000468005 0.00748847 1.71697 0.775709 0.269785 0.0609963 0.079975 0.504948 0.0025 
139 1 0.0835627 0.0166652 0.00286009 0 0 0 0.174511 -0.109796 -0.00107065 4.20579 -2.55139 -0.01946 1.14362 2.00039 -18.4411 0.0025 
140 1 0.0542472 0.120201 0.00256926 0 0 0 0 0 0 0 0 0 0 0 0 0.0025 
141 1 0.0364007 0.0291401 0.00288568 0 0 0 -0.0401895 0.11052 0.00585026 -1.09223 3.11507 0.176484 -0.00728914 -0.0026902 0.000741285 0.0025 
142 1 0.08878 0.0626753 0.00268278 0 0 0 0.116756 0.100991 -0.0111961 3.25554 -0.424147 -0.286114 0.678773 0.0446333 8.22349 0.0025 
143 1 0.0579101 0.0793119 0.00255917 0 0 0 0.0549477 -0.0926319 -0.0234172 -0.737889 -3.85591 -0.846103 0.830416 -1.79442 -9.03429 0.0025 
144 1 0.0246223 0.0359261 0.00296352 0 0 0 0.0166126 0.166096 0.0139764 -7.2666 1.06782 0.252109 -0.133165 1.85539 -20.9549 0.0025 
145 1 0.129625 0.0663987 0.00270709 0 0 0 0 0 0 0 0 0 0 0 0 0.0025 
146 1 0.0965895 0.125321 0.00287209 0 0 0 -0.154663 -0.0428233 0.00907903 -3.58366 -1.06088 0.216507 -2.22728 2.6401 -25.3846 0.0025 
147 1 0.0687662 0.103174 0.00290595 0 0 0 0.14882 -0.0776292 0.00777363 1.59931 7.28789 0.474905 1.48901 0.689934 -36.6233 0.0025 
148 1 0.0620322 0.120847 0.0026521 0 0 0 0.0578547 0.194498 -0.00340971 0.619993 1.34903 -0.0383194 0.153598 -0.000751678 2.41831 0.0025 
149 1 0.0849059 0.0653467 0.0029787 0 0 0 -0.122157 0.0075845 0.0082809 -4.60241 0.86175 0.335834 0.576549 -0.21345 3.26654 0.0025 
150 1 0.0393977 0.105425 0.00262729 0 0 0 -0.21605 -0.0240263 -0.00322496 -0.815573 2.89528 -0.309527 -2.06585 -0.757288 23.1552 0.0025 
151 1 0.0607613 0.11613 0.00273319 0 0 0 0.0568974 -0.0673955 -0.00299553 3.38919 3.097 -0.193531 -0.287946 -0.0206025 -5.86571 0.0025 
152 1 0.105786 0.0504225 0.00294203 0 0 0 0.0130592 0.0153295 0.0108091 -0.532632 -2.61532 0.107867 0.964568 0.342563 -16.1526 0.0025 
153 1 0.0574702 0.113017 0.00292184 0 0 0 -0.114752 -0.127102 0.00640525 -4.00919 -4.44603 0.231851 -0.441544 -0.0198508 -8.28403 0.0025 
154 1 0.101537 0.0547563 0.00281954 0 0 0 -0.0671566 -0.0129977 -0.000377388 -0.87945 -1.06162 -0.00123616 -0.00337137 0.0841613 4.03084 0.0025 
155 1 0.101802 0.130494 0.00300201 0 0 0 0.0255666 0.177364 0.0166834 0 0 0 -0.0152838 -0.175746 1.7639 0.0025 
156 1 0.0462872 0.0287879 0.00288593 0 0 0 -0.0844408 -0.00868153 0.00311777 -3.25326 -0.483459 0.128023 -0.269484 -0.234295 -7.91131 0.0025 
157 1 0.0754763 0.0847963 0.00279135 0 0 0 0.0477304 0.0825511 0.0154202 -4.03381 2.02472 0.311283 0.0667087 1.11424 -6.13418 0.0025 
158 1 0.104111 0.0886758 0.00272134 0 0 0 0.000309147 -0.000426357 -5.32126e-06 0.318199 -0.436579 -0.00544147 -0.000992965 -0.00145215 0.0586651 0.0025 
159 1 0.0880834 0.117043 0.00280543 0 0 0 0.0475904 -0.0130399 -0.00139628 3.87989 -1.04351 -0.115714 0.249272 0.516112 3.67954 0.0025 
160 1 0.127194 0.117753 0.00263652 0 0 0 0 0 0 0 0 0 0 0 0 0.0025 
161 1 0.0763971 0.0592294 0.00269842 0 0 0 -0.140419 0.125954 -0.0024594 1.67416 5.22993 0.239256 -0.223944 -0.490975 13.8358 0.0025 
162 1 0.0203039 0.0301591 0.00297344 0 0 0 -0.00136619 -0.0100526 0.000823737 -0.0899762 -0.83936 0.147026 -0.123463 0.14317 2.26722 0.0025 
163 1 0.129746 0.0941489 0.0028574 0 0 0 -0.0131231 -0.00666339 0.000911859 -0.181871 -1.08674 0.0601187 0.0724355 0.44657 -3.58918 0.0025 
164 1 0.0463467 0.111956 0.00273347 0 0 0 -0.0252348 0.138512 -0.00743183 1.91877 2.41242 -0.0714138 -0.668418 -0.576725 -8.74988 0.0025 
165 1 0.0518747 0.0206436 0.00283816 0 0 0 -0.04236 -0.0635416 6.83425e-05 -2.26238 -3.31974 0.00776766 0.11414 -0.0746869 1.3184 0.0025 
166 1 0.0859084 0.0298019 0.00257287 0 0 0 0.00283437 0.00313744 -0.000142777 0.696819 0.771328 -0.0352972 5.51569e-07 -4.98288e-07 -7.4778e-17 0.0025 
167 1 0.0291969 0.103617 0.00284697 0 0 0 0 0 0 0 0 0 0 0 0 0.0025 
168 1 0.0905932 0.100636 0.00256775 0 0 0 0.0711225 0.0102155 -0.00466832 0.42633 1.26105 -0.239687 -0.0058869 0.00581576 0.463217 0.0025 
169 1 0.0971151 0.0706871 0.00293564 0 0 0 -0.152569 -0.191247 0.00434876 -0.456128 -1.29333 0.0490494 0.501242 -0.798833 -16.7418 0.0025 
170 1 0.117115 0.0997299 0.00301987 0 0 0 0.0450821 0.0892676 0.0139514 1.62945 -5.62769 0.113375 -0.149986 0.111945 -3.13086 0.0025 
171 1 0.0800502 0.0196663 0.0029721 0 0 0 0.0250884 0.145994 0.0180954 -3.43112 2.38337 0.0616284 0.609918 1.41211 -11.4546 0.0025 
172 1 0.0688266 0.0929719 0.00285539 0 0 0 0 0 0 0 0 0 0 0 0 0.0025 
173 1 0.01752 0.0656579 0.00260097 0 0 0 0 0 0 0 0 0 0 0 0 0.0025 
174 1 0.0662256 0.124194 0.00283405 0 0 0 -0.024447 0.00259678 -0.000160201 -2.83461 0.296883 -0.0172781 -0.00920387 -0.0969783 -0.166721 0.0025 
175 1 0.11395 0.0838484 0.00288962 0 0 0 -0.205896 0.0982339 0.0079587 -3.06861 -4.42297 0.34689 -0.596486 -1.19936 -19.4831 0.0025 
176 1 0.111333 0.0444888 0.00292042 0 0 0 -0.030319 0.155188 0.0102269 -0.13908 7.86446 0.49732 1.40846 1.17493 -2.8334 0.0025 
177 1 0.108045 0.115568 0.0029969 0 0 0 0.00376139 0.104387 0.0147126 -0.478364 -0.0310682 0.48024 -0.330843 0.319028 4.22947 0.0025 
178 1 0.0961518 0.0895151 0.00273411 0 0 0 0.00970084 -0.0459063 0.00184121 0.599616 -3.07648 0.121673 -0.0649905 0.0180109 0.786076 0.0025 
179 1 0.102978 0.120871 0.00265867 0 0 0 0.00126963 -0.00336833 6.41957e-05 0.459018 -1.21633 0.024145 -0.0589767 -0.0225805 -0.0182783 0.0025 
180 1 0.0282511 0.059323 0.00264036 0 0 0 0.00712511 -0.183686 -0.00800029 0 0 0 -0.0829012 -0.0032157 1.82704e-13 0.0025 
181 1 0.129422 0.0819509 0.0026873 0 0 0 0.0509834 -0.17413 -0.00188235 0.363947 -1.23093 -0.0147853 -0.0106338 -0.00304081 -0.00629999 0.0025 
182 1 0.039624 0.0571587 0.0026693 0 0 0 0.0183764 -0.0647962 0.0021353 -2.91846 4.44882 -0.0625582 -1.80403 -0.183341 23.0082 0.0025 
183 1 0.0177554 0.10945 0.00250573 0 0 0 0 0 0 0 0 0 0 0 0 0.0025 
184 1 0.0247205 0.0811456 0.00281373 0 0 0 0.00443565 -0.0218446 0.00254338 1.44587 -1.297 0.194716 0.0431756 -0.737943 3.82371 0.0025 
185 1 0.0924168 0.0797782 0.00289054 0 0 0 -0.153469 0.0989161 0.00633064 -1.60905 -0.076067 0.117552 -0.128489 0.0466188 -3.79414 0.0025 
186 1 0.0646255 0.0276712 0.00257608 0 0 0 0 0 0 0 0 0 0 0 0 0.0025 
187 1 0.107071 0.0284818 0.00288189 0 0 0 0.00171587 -0.00706284 0.000275632 0.40548 -1.66428 0.0655038 -0.0573406 -0.00210895 0.302911 0.0025 
188 1 0.118183 0.0880679 0.00277296 0 0 0 -0.0370118 0.176621 1.90315e-06 -0.411837 2.3707 0.0157968 -1.33999 -0.277881 -17.1663 0.0025 
189 1 0.130149 0.109228 0.00276315 0 0 0 0.150133 0.103279 -0.00759028 0 0 0 0.0441773 -0.0642189 1.74723e-12 0.0025 
190 1 0.0901047 0.092382 0.00262558 0 0 0 0.0129678 0.0136012 0.000183955 1.96873 2.05483 0.0284163 0.0320023 -0.0178912 -0.933149 0.0025 
191 1 0.0628499 0.0630836 0.00299873 0 0 0 0 0 0 0 0 0 0 0 0 0.0025 
192 1 0.0823034 0.129697 0.00268978 0 0 0 -0.0942455 0.119477 0.00194219 4.65512 5.35525 0.208664 0.19519 -0.568423 8.15956 0.0025 
193 1 0.0683484 0.117908 0.00290436 0 0 0 0 0 0 0 0 0 0 0 0 0.0025 
194 1 0.0595839 0.071884 0.00275189 0 0 0 0.050479 -0.0414305 -0.00183928 3.82527 -3.11082 -0.142682 0.147056 0.0656541 2.55733 0.0025 
195 1 0.12363 0.0455494 0.00299708 0 0 0 0.0222082 0.128452 0.0109116 0.052958 2.27079 0.203025 -0.0228832 0.879083 -10.1202 0.0025 
196 1 0.0620638 0.128539 0.00258809 0 0 0 0 0 0 0 0 0 0 0 0 0.0025 
197 1 0.0330081 0.0181133 0.00294612 0 0 0 0 0 0 0 0 0 0 0 0 0.0025 
198 1 0.102649 0.0222522 0.0025417 0 0 0 0.189448 0.0451803 -0.0171131 0.985965 0.0966436 -0.060339 0.0670874 0.237625 1.27707 0.0025 
199 1 0.0273158 0.0542696 0.00297184 0 0 0 -0.0424462 0.173043 0.00268362 -1.19722 4.85712 0.0873416 -0.200357 -0.0452383 -0.247797 0.0025 
200 1 0.0540553 0.0943336 0.00291396 0 0 0 0.000455948 0.00246148 8.04337e-05 0.193649 1.06002 0.0348001 0.0102961 -0.00465845 0.0842102 0.0025 
201 1 0.116197 0.0463817 0.00273761 0 0 0 0.0414766 -0.177277 -0.002181 0.37017 -1.42962 -0.0192866 -0.0113269 -0.00014576 -0.192034 0.0025 
202 1 0.0490423 0.0526943 0.00265262 0 0 0 0.00472363 -0.128108 -0.00660109 -0.433503 0.119166 0.0179092 0.00738862 -0.17127 1.69812 0.0025 
203 1 0.121049 0.107116 0.00289554 0 0 0 0.000916257 -0.000859155 7.32386e-06 0.452609 -0.464747 0.00350789 0.000852183 0.000270954 -0.0705303 0.0025 
204 1 0.105242 0.0762496 0.0027965 0 0 0 -0.0272483 0.0776904 0.00160047 -1.23813 3.33226 0.0690534 0.0153931 0.0205104 -0.72175 0.0025 
205 1 0.115949 0.073657 0.00265424 0 0 0 0.176372 0.0446176 -0.00713395 1.90653 0.480434 -0.0755021 -0.00310119 0.0214021 0.0545155 0.0025 
206 1 0.0775964 0.0357584 0.00265794 0 0 0 -0.0394099 -0.0189066 -0.0030023 3.22112 5.30826 -0.112779 0.27096 -0.23176 -14.6203 0.0025 
207 1 0.0493479 0.0684928 0.00259322 0 0 0 -0.165845 0.0230663 -0.00810677 0.660985 -4.69237 -0.443984 0.655689 0.747455 -9.80013 0.0025 
208 1 0.125988 0.106365 0.00299175 0 0 0 -0.150128 -0.103279 0.00759033 0.0474801 -0.0021033 0.000501082 0.0441804 -0.0642567 -0.000457217 0.0025 
209 1 0.0231365 0.0892399 0.00255293 0 0 0 0 0 0 0 0 0 0 0 0 0.0025 
210 1 0.0849408 0.0845225 0.00260193 0 0 0 -0.0685196 -0.154882 0.0012546 -1.373 1.53779 0.00779243 0.0228864 0.00391183 1.6823 0.0025 
211 1 0.0320052 0.0259307 0.00300063 0 0 0 0.072202 0.0841132 0.00575543 2.27589 2.65579 0.186273 0.00238931 -0.00146941 -0.00823919 0.0025 
212 1 0.0348272 0.0516253 0.00287171 0 0 0 -0.112697 0.215187 0.0010851 -0.878707 -3.55971 0.22924 -2.66604 -1.15874 10.3578 0.0025 
213 1 0.0925336 0.045877 0.00269643 0 0 0 0.0938272 -0.0413464 -0.00760968 -5.09148 1.76079 0.0915617 -0.00446538 -0.280106 1.77529 0.0025 
214 1 0.07251 0.111559 0.00260351 0 0 0 0 0 0 0 0 0 0 0 0 0.0025 
215 1 0.08073 0.0322323 0.00298304 0 0 0 0.0282284 -0.0493535 0.00356342 1.82375 -3.02359 0.227637 -0.489919 0.343134 8.64195 0.0025 
216 1 0.0162321 0.115545 0.00250066 0 0 0 0 0 0 0 0 0 0 0 0 0.0025 
217 1 0.0627325 0.0455693 0.00248585 0 0 0 0.165942 -0.258607 -0.0207436 2.2758 -1.48061 -0.109253 1.1816 1.65037 20.2648 0.0025 
218 1 0.0357329 0.102401 0.00298308 0 0 0 -0.0153034 -0.0116398 0.0012228 -2.39258 -1.82463 0.194232 -0.0634666 0.138059 0.519622 0.0025 
219 1 0.122864 0.128038 0.00288149 0 0 0 0.00226356 -0.000474582 5.24202e-05 0.763488 -0.159806 0.0176953 -2.04264e-05 -0.000204187 -0.000965418 0.0025 
220 1 0.112977 0.111305 0.00281451 0 0 0 -0.107342 0.104384 0.00228438 -2.76688 4.60109 0.13193 0.944601 0.118964 -5.82662 0.0025 
221 1 0.0531145 0.0789176 0.00294939 0 0 0 -0.186473 0.104188 0.00919598 -2.10336 -1.27984 0.157728 -2.05083 -0.466429 -27.0717 0.0025 
222 1 0.0497892 0.122592 0.00288542 0 0 0 0 0 0 0 0 0 0 0 0 0.0025 
223 1 0.0503832 0.0332999 0.00259376 0 0 0 -0.122594 0.0395109 -0.005977 -4.85339 -2.43413 -0.151865 -0.915947 1.00729 -2.48573 0.0025 
224 1 0.0893206 0.0520404 0.00257696 0 0 0 0.0109396 0.146309 -0.00989841 0.290113 3.84185 -0.259261 -2.0778 -1.57031 -25.4638 0.0025 
225 1 0.0882214 0.0231427 0.00278882 0 0 0 0 0 0 0 0 0 0 0 0 0.0025 
226 1 0.0851752 0.0704313 0.00264458 0 0 0 -0.0852966 0.00048745 -0.00269648 -1.20464 -2.55677 -0.0703373 -0.313048 0.024369 -11.1899 0.0025 
227 1 0.0580233 0.0595623 0.00299713 0 0 0 0.00887478 0.081188 0.00606858 0.462678 3.44304 0.26656 -0.0142753 -0.0493278 0.668505 0.0025 
228 1 0.121293 0.0664758 0.00249453 0 0 0 0.139262 0.114639 -0.0110556 0 0 0 -0.114125 -0.0555128 -1.87927 0.0025 
229 1 0.0442097 0.0532079 0.00299909 0 0 0 -0.25372 -0.0321818 0.0190092 3.05064 -2.66765 0.309335 -1.69325 0.270941 -29.4441 0.0025 
230 1 0.057503 0.101671 0.00264227 0 0 0 -0.102168 0.0579366 -0.00287198 0.350556 1.81406 -0.239274 0.466625 0.78281 -9.92943 0.0025 
231 1 0.127688 0.100458 0.00271379 0 0 0 0.167778 0.236651 -0.0119948 1.59696 1.37701 0.0153875 -3.02897 3.26561 20.8453 0.0025 
232 1 0.033926 0.128489 0.00247727 0 0 0 0.0166783 0.218372 -0.0179667 -2.71016 5.06146 -0.279239 -0.354205 0.0437795 -30.8653 0.0025 
233 1 0.107641 0.110855 0.00253838 0 0 0 -0.0118522 -0.138184 -0.0128274 -0.263803 -3.14799 -0.301634 0.00357798 0.00187387 -0.0226119 0.0025 
234 1 0.121846 0.0319523 0.00273116 0 0 0 0.0606295 -0.139654 0.00487365 1.29265 -1.31695 0.179493 0.0705971 -0.278707 -11.1399 0.0025 
235 1 0.119519 0.1214 0.0027514 0 0 0 0 0 0 0 0 0 0 0 0 0.0025 
236 1 0.10673 0.0717683 0.00269971 0 0 0 -0.049407 -0.0751295 -0.00334617 -3.57541 -1.87186 -0.170966 0.185035 -0.506293 -1.61456 0.0025 
237 1 0.116492 0.0948602 0.002642 0 0 0 -0.13748 -0.172817 -0.0130999 -6.41228 -0.18512 -0.0534326 0.0687977 0.856829 2.0781 0.0025 
238 1 0.0925689 0.0586178 0.00256974 0 0 0 0 0 0 0 0 0 0 0 0 0.0025 
239 1 0.116404 0.0333306 0.00263354 0 0 0 0.065511 -0.16398 0.00251025 3.44475 1.32581 0.0268875 0.265922 -0.619823 3.48661 0.0025 
240 1 0.0952976 0.0397199 0.00290894 0 0 0 -0.000476041 -0.00193715 0.000103717 -0.168746 -0.701655 0.03759 -0.00436277 -0.00582627 -0.128826 0.0025 
241 1 0.0371673 0.125546 0.00252639 0 0 0 0.0707739 -0.0303667 -0.0102514 3.79186 -1.69153 -0.00398383 -0.799307 -1.30366 -17.4329 0.0025 
242 1 0.0411806 0.0807964 0.00285076 0 0 0 0 0 0 0 0 0 0 0 0 0.0025 