ITEM: TIMESTEP
2000
ITEM: NUMBER OF ATOMS
415
ITEM: BOX BOUNDS pp pp pp
0.011 0.135059
0.011 0.135059
0 0.0055
ITEM: ATOMS id type x y z ix iy iz vx vy vz fx fy fz omegax omegay omegaz radius 
1 1 0.0421785 0.104767 0.00287407 0 0 0 0.0585488 0.124616 0.0151062 3.26088 0.189285 0.342513 -0.224546 -0.651938 15.6092 0.0025 
2 1 0.0258673 0.120923 0.00271291 0 0 0 -0.0143511 0.0260014 0.00118199 -1.19349 2.16237 0.0998134 -0.000111855 -6.17367e-05 -2.18302e-15 0.0025 
3 1 0.0806037 0.0760842 0.00280303 0 0 0 -0.171694 0.033583 0.00610714 -1.08937 0.218849 0.043557 -0.00667512 -0.0363491 0.0114752 0.0025 
4 1 0.106216 0.0599054 0.00266083 0 0 0 0 0 0 0 0 0 0 0 0 0.0025 
5 1 0.0386672 0.064336 0.00280435 0 0 0 0.0888726 0.142574 0.0091293 -2.01298 0.0317034 0.108913 0.260311 0.245566 -6.99915 0.0025 
6 1 0.0398434 0.0473681 0.00252293 0 0 0 0.126896 -0.116844 -0.00735942 4.64244 -0.690679 -0.317678 -0.844128 0.872826 -6.53516 0.0025 
7 1 0.0300673 0.0295013 0.0025951 0 0 0 0 0 0 0 0 0 0 0 0 0.0025 
8 1 0.081827 0.0506937 0.00286502 0 0 0 0 0 0 0 0 0 0 0 0 0.0025 
9 1 0.0526465 0.0347997 0.00259805 0 0 0 -0.108312 -0.0795899 -0.0181251 -0.00285914 2.98766 -0.217317 -1.644 -0.705779 13.207 0.0025 
10 1 0.114654 0.0889734 0.00263632 0 0 0 -0.000143812 0.000425884 -1.87579e-05 -0.142359 0.422296 -0.0187021 -0.00255684 -0.00155314 -0.0156603 0.0025 
11 1 0.0759152 0.0490504 0.00262877 0 0 0 0.00115707 -0.0808407 0.00211695 0.0485162 -3.36503 0.0899711 -0.00214413 4.99106e-05 0.00302769 0.0025 
12 1 0.0132317 0.0535279 0.00270611 0 0 0 0 0 0 0 0 0 0 0 0 0.0025 
13 1 0.0924899 0.124188 0.00278632 0 0 0 0.122022 -0.0969514 0.011509 0.0847161 0.088782 0.281068 0.0651758 0.411066 3.29495 0.0025 
14 1 0.0758771 0.106532 0.00275367 0 0 0 0.0532023 0.0749612 0.00107539 1.95131 2.7685 0.0397464 0.00395525 -0.00209339 -0.0485757 0.0025 
15 1 0.101874 0.0788421 0.00265007 0 0 0 0.0633072 0.202818 -0.00893478 3.36049 5.04038 -0.245132 -0.278364 0.663192 18.4472 0.0025 
16 1 0.0451498 0.0772121 0.00281331 0 0 0 0.121772 0.0640724 -0.000278556 4.24984 3.58937 -0.0441478 -0.00677458 0.0486706 -8.13141 0.0025 
17 1 0.075757 0.0403795 0.00252253 0 0 0 0.0469748 -0.0385817 -0.00119581 3.42556 -2.81232 -0.089084 0.161569 0.136712 1.93443 0.0025 
18 1 0.0995862 0.0575804 0.00278306 0 0 0 0.0394976 0.0735682 0.000415919 1.17147 3.27187 0.0127235 0.00120403 -6.2176e-05 -0.142346 0.0025 
19 1 0.0830581 0.0239802 0.00273979 0 0 0 0 0 0 0 0 0 0 0 0 0.0025 
20 1 0.0700147 0.0790481 0.00256489 0 0 0 -0.143884 -0.0242604 -0.0112532 0.769657 -1.15317 -0.146885 0.0456376 0.193562 -0.981214 0.0025 
21 1 0.0671522 0.041312 0.0029201 0 0 0 0 0 0 0 0 0 0 0 0 0.0025 
22 1 0.0961047 0.0951143 0.00253722 0 0 0 -0.00427269 -0.00103369 -0.000315104 -1.08828 -0.0325742 -0.0853764 0.0488707 -0.0230816 -0.496767 0.0025 
23 1 0.127584 0.070464 0.00272999 0 0 0 0.0824131 -0.102531 0.00483913 1.85714 -2.31047 0.114289 0.00698502 0.0056145 5.45104e-13 0.0025 
24 1 0.118448 0.0231388 0.00254813 0 0 0 0.015026 0.00121685 -0.000627231 1.84256 0.149216 -0.0777289 1.87556e-06 -2.316e-05 1.62347e-16 0.0025 
25 1 0.102812 0.0400418 0.00250764 0 0 0 0 0 0 0 0 0 0 0 0 0.0025 
26 1 0.0472134 0.0136392 0.00297806 0 0 0 0 0 0 0 0 0 0 0 0 0.0025 
27 1 0.0459187 0.0724134 0.0029502 0 0 0 0.00229861 -0.0120374 0.000679795 -0.173124 -0.664176 0.130156 0.0344497 -0.0155491 -1.53153 0.0025 
28 1 0.0722482 0.0898961 0.00271556 0 0 0 0 0 0 0 0 0 0 0 0 0.0025 
29 1 0.117426 0.0171083 0.0028586 0 0 0 0 0 0 0 0 0 0 0 0 0.0025 
30 1 0.126818 0.019575 0.00274227 0 0 0 -0.00305448 0.068675 0.00995842 -4.39116 -1.20323 0.188182 0.135173 0.94883 -18.1168 0.0025 
31 1 0.0944956 0.0194462 0.00284492 0 0 0 -0.0349876 -0.00927739 -0.000772958 -3.63804 -1.33254 -0.0858906 -0.0159208 -0.365897 -1.30267 0.0025 
32 1 0.0948898 0.0242936 0.00289264 0 0 0 -0.0049327 0.013215 0.000500749 -1.0749 1.75563 0.0932552 0.00110523 0.00135612 -0.150991 0.0025 
33 1 0.0992639 0.0843972 0.00285024 0 0 0 0 0 0 0 0 0 0 0 0 0.0025 
34 1 0.0520628 0.101635 0.00289696 0 0 0 0.0366243 -0.0439284 -0.000291339 2.53478 -3.04835 -0.0209518 -0.0220819 -0.0216391 0.485922 0.0025 
35 1 0.0646479 0.0131734 0.00253513 0 0 0 -0.0031122 -0.00107302 -0.000244789 -1.00572 -0.345706 -0.0795009 0.0608738 -0.0275567 -0.653134 0.0025 
36 1 0.131267 0.017521 0.00277238 0 0 0 0.00693476 -0.00259256 0.000126789 1.18824 -0.460802 0.0222922 0.0285034 0.0556061 -0.421405 0.0025 
37 1 0.0319511 0.0552184 0.00280216 0 0 0 -5.70441e-06 1.89733e-05 -2.92344e-07 -0.0293401 0.0983604 -0.0015118 1.39695e-05 -6.75236e-06 -0.000710831 0.0025 
38 1 0.0380564 0.0518359 0.00259803 0 0 0 -0.0529809 0.118614 0.00184376 -0.380122 -1.5422 -0.0172865 0.14093 0.0334477 -0.396868 0.0025 
39 1 0.0495602 0.0862202 0.00273434 0 0 0 -0.0795362 -0.109381 0.000158149 -1.70754 -2.34827 0.00356471 0.000254822 -0.000185293 1.02679e-13 0.0025 
40 1 0.0911215 0.0725791 0.00250782 0 0 0 0 0 0 0 0 0 0 0 0 0.0025 
41 1 0.0350678 0.0847365 0.00271681 0 0 0 0 0 0 0 0 0 0 0 0 0.0025 
42 1 0.031243 0.11193 0.00252711 0 0 0 -0.0493841 0.0011572 -0.00282589 -2.95732 0.0692977 -0.172772 1.67362e-05 0.000714227 -1.15113e-15 0.0025 
43 1 0.0447106 0.129497 0.0025763 0 0 0 0 0 0 0 0 0 0 0 0 0.0025 
44 1 0.0975629 0.111954 0.00291291 0 0 0 -0.0562993 0.141673 0.00879028 -0.888317 2.23539 0.147449 -0.0242586 -0.00964008 1.82657e-13 0.0025 
45 1 0.0325357 0.0802488 0.00280611 0 0 0 0 0 0 0 0 0 0 0 0 0.0025 
46 1 0.0262612 0.0752071 0.00269945 0 0 0 0 0 0 0 0 0 0 0 0 0.0025 
47 1 0.0145788 0.017774 0.00254575 0 0 0 -0.156228 0.0562042 -0.0067022 -5.37788 1.88589 -0.238946 0.391979 0.162287 -7.74452 0.0025 
48 1 0.102373 0.116543 0.00256386 0 0 0 0 0 0 0 0 0 0 0 0 0.0025 
49 1 0.0535395 0.022355 0.00284351 0 0 0 -0.0190978 -0.000415845 0.0016204 -1.32079 0.531905 0.145738 0.00518659 -0.00350765 0.0603933 0.0025 
50 1 0.0635361 0.0543989 0.00267835 0 0 0 0 0 0 0 0 0 0 0 0 0.0025 
51 1 0.0417675 0.0418065 0.00287295 0 0 0 0 0 0 0 0 0 0 0 0 0.0025 
52 1 0.0826212 0.124552 0.00261929 0 0 0 -0.0266262 0.0977067 -0.00797454 -0.846678 3.1713 -0.267085 0.00280264 0.00755587 0.0810798 0.0025 
53 1 0.0991438 0.0488924 0.00295044 0 0 0 0.00110608 -0.00328743 0.000126437 0.32683 -0.976003 0.0376335 -0.00861538 0.00380699 0.174337 0.0025 
54 1 0.019823 0.0480143 0.00291759 0 0 0 0 0 0 0 0 0 0 0 0 0.0025 
55 1 0.0176096 0.0803254 0.00264607 0 0 0 0.0853841 -0.0979657 -0.0141069 3.30099 1.35514 -0.594453 -1.23712 0.239589 -8.89378 0.0025 
56 1 0.0638554 0.0867444 0.0027676 0 0 0 0 0 0 0 0 0 0 0 0 0.0025 
57 1 0.0423722 0.100006 0.00248652 0 0 0 0.133267 -0.118074 -0.0183135 1.77764 -0.282278 -0.4115 -0.281856 0.222915 -4.71064 0.0025 
58 1 0.113097 0.0341058 0.00276032 0 0 0 -0.0612579 0.0953092 0.00961378 -1.5427 -3.73234 0.19254 -0.604056 0.140109 -0.393472 0.0025 
59 1 0.056366 0.129039 0.00250989 0 0 0 0.00215332 -0.000569198 -5.44579e-05 0.718398 -0.189898 -0.01824 -2.82886e-08 -1.07018e-07 -5.38397e-18 0.0025 
60 1 0.105436 0.108541 0.00252847 0 0 0 -0.000396403 0.00172157 -5.46905e-05 -0.149011 0.657915 -0.020983 0.00024271 0.00182173 0.055577 0.0025 
61 1 0.0656293 0.080944 0.00262512 0 0 0 -0.0197243 0.00702615 4.20334e-05 -2.68214 0.960389 0.00674708 0.0520156 0.152059 -1.00902 0.0025 
62 1 0.0833879 0.108608 0.00296446 0 0 0 0 0 0 0 0 0 0 0 0 0.0025 
63 1 0.128177 0.0333975 0.00268362 0 0 0 -0.0396145 -0.0185464 -0.000758673 -2.58391 -1.20971 -0.0504438 -6.56915e-05 0.000140315 3.11406e-15 0.0025 
64 1 0.0576991 0.0459552 0.00276302 0 0 0 -0.0695836 -0.0830185 0.0126219 -1.21755 -1.22906 0.142423 -0.635274 1.00439 -19.3894 0.0025 
65 1 0.0330973 0.091203 0.0029846 0 0 0 0 0 0 0 0 0 0 0 0 0.0025 
66 1 0.128903 0.0276583 0.00252283 0 0 0 -0.118062 -0.076003 -0.00660781 -2.3281 -1.49873 -0.137245 -0.00802917 0.0124724 4.16872e-13 0.0025 
67 1 0.0243005 0.12667 0.00297344 0 0 0 -0.129062 -0.120566 0.00756887 -3.87582 -3.53912 0.235467 0.526021 0.018512 9.21968 0.0025 
68 1 0.0703046 0.0181987 0.00286015 0 0 0 -0.0469746 0.0200189 -8.09006e-05 2.253 -1.11675 0.0975744 0.00423222 -0.0533602 -0.373678 0.0025 
69 1 0.0817268 0.103257 0.00274051 0 0 0 0 0 0 0 0 0 0 0 0 0.0025 
70 1 0.043977 0.0343561 0.00267074 0 0 0 -0.0393269 -0.0413252 -0.000852089 -0.472017 -0.193231 -0.150044 -0.105694 0.112091 0.706179 0.0025 
71 1 0.0667458 0.0344691 0.00269232 0 0 0 0 0 0 0 0 0 0 0 0 0.0025 
72 1 0.0559236 0.0404283 0.00290564 0 0 0 0.102336 0.0472332 0.00468976 3.42141 1.68052 0.163727 0.519739 0.462938 -15.9489 0.0025 
73 1 0.0797787 0.0833646 0.00251635 0 0 0 0.0434869 -0.0160559 -0.00205382 3.63703 -1.34372 -0.174974 0.032494 0.359741 -2.12302 0.0025 
74 1 0.1025 0.12806 0.00248437 0 0 0 0.0449849 -0.15723 -0.020582 3.36763 0.543874 -0.250177 -0.913716 0.943669 -8.99702 0.0025 
75 1 0.124675 0.0395813 0.00259833 0 0 0 -0.115958 -0.0782072 -0.00644854 -3.63113 -3.08843 -0.262758 -0.00331146 0.119914 -1.38469 0.0025 
76 1 0.114908 0.131069 0.00292518 0 0 0 0.092793 0.0265837 0.00378151 3.18431 0.912253 0.134208 -0.000923133 0.00322229 -8.81761e-14 0.0025 
77 1 0.127806 0.0540521 0.00275027 0 0 0 0 0 0 0 0 0 0 0 0 0.0025 
78 1 0.0806338 0.0939045 0.0028754 0 0 0 0 0 0 0 0 0 0 0 0 0.0025 
79 1 0.0549777 0.0748288 0.00289966 0 0 0 0.0904957 -0.15227 -0.00119229 -0.315332 -0.114191 0.0221904 0.0767786 0.0351762 1.24895 0.0025 
80 1 0.0761776 0.132472 0.00250854 0 0 0 -0.000839146 0.00183111 -1.90887e-05 -0.299974 0.652977 -0.00686607 0.000813724 0.00530256 0.47287 0.0025 
81 1 0.0399382 0.119043 0.0027405 0 0 0 -0.155339 0.0148836 0.00156655 -2.30045 0.220543 0.024733 -0.000476257 -0.00497897 7.50789e-05 0.0025 
82 1 0.0181021 0.132015 0.0024932 0 0 0 0.108377 0.0257241 -0.00761305 3.12482 0.741698 -0.228178 0.00216137 -0.00910598 5.52312e-14 0.0025 
83 1 0.0177902 0.122751 0.00255134 0 0 0 0 0 0 0 0 0 0 0 0 0.0025 
84 1 0.065134 0.113324 0.00251047 0 0 0 0 0 0 0 0 0 0 0 0 0.0025 
85 1 0.106176 0.044664 0.00272274 0 0 0 -0.118273 -0.0412478 -0.0153813 -2.39068 1.88037 -0.291575 -0.792445 -0.0482663 6.75614 0.0025 
86 1 0.123387 0.0956753 0.00261105 0 0 0 -0.19022 -0.0991097 -0.0160671 -0.730861 -2.10601 -0.231032 1.46108 -1.33697 -9.18412 0.0025 
87 1 0.119497 0.0629781 0.00283584 0 0 0 -0.163648 -0.0515898 0.0144616 -1.64111 2.67316 0.216017 0.892207 -0.243649 9.06158 0.0025 
88 1 0.0568406 0.0540765 0.00264089 0 0 0 -0.00103355 -0.0174961 -0.00126047 0.418301 -1.93227 -0.135127 0.00116777 -0.00415715 -0.068442 0.0025 
89 1 0.07379 0.0738046 0.00265607 0 0 0 0 0 0 0 0 0 0 0 0 0.0025 
90 1 0.0918252 0.113664 0.00260423 0 0 0 0 0 0 0 0 0 0 0 0 0.0025 
91 1 0.120659 0.0838841 0.00282282 0 0 0 -0.0672289 -0.101712 0.00877435 2.93688 -2.69674 0.0552715 -0.498625 -0.400642 -13.446 0.0025 
92 1 0.0401494 0.0147902 0.00262534 0 0 0 0 0 0 0 0 0 0 0 0 0.0025 
93 1 0.0263426 0.0486862 0.00290549 0 0 0 -0.00275044 -0.000513761 0.0022423 -0.489466 1.57084 0.174584 0.0418923 0.0064658 0.0618057 0.0025 
94 1 0.0814534 0.0374874 0.0027175 0 0 0 0.128329 0.12149 0.00194816 0.8216 0.746837 0.0144917 -0.011425 0.0104599 0.0944461 0.0025 
95 1 0.0463885 0.0456148 0.00254171 0 0 0 0 0 0 0 0 0 0 0 0 0.0025 
96 1 0.0696176 0.0472911 0.00254183 0 0 0 -0.00548097 0.108027 -0.00597458 3.45928 -1.11207 -0.314279 0.143281 0.678605 -5.80483 0.0025 
97 1 0.0151238 0.0892093 0.0028715 0 0 0 -0.0802558 0.211895 0.00464865 -0.937832 2.80678 0.0684681 -0.0539557 -0.078779 2.55313 0.0025 
98 1 0.0894868 0.0154991 0.00285596 0 0 0 0 0 0 0 0 0 0 0 0 0.0025 
99 1 0.040742 0.0758903 0.00281239 0 0 0 -0.0239696 0.0999653 0.0013579 -3.13356 0.174655 0.0145838 -0.022021 0.0606734 -4.54318 0.0025 
100 1 0.0878446 0.0806397 0.00259704 0 0 0 0 0 0 0 0 0 0 0 0 0.0025 
101 1 0.0214704 0.0715977 0.00275345 0 0 0 0 0 0 0 0 0 0 0 0 0.0025 
102 1 0.114401 0.0385291 0.00255661 0 0 0 -0.10875 0.139754 -0.00555244 -2.18828 4.31449 -0.411287 -0.447453 0.417953 7.77036 0.0025 
103 1 0.0499371 0.0266884 0.00272409 0 0 0 0.0305938 -0.0885441 0.00159776 2.41711 -3.21316 0.0158218 -0.0386668 -0.0312537 -1.06659 0.0025 
104 1 0.0537736 0.107641 0.00288724 0 0 0 0 0 0 0 0 0 0 0 0 0.0025 
105 1 0.110354 0.129764 0.00273389 0 0 0 -0.092793 -0.0265837 -0.00378151 -3.18431 -0.912253 -0.134208 -0.000923133 0.00322229 -8.81761e-14 0.0025 
106 1 0.0169139 0.0847897 0.00277019 0 0 0 0.0383303 0.0279943 0.00106982 -0.0597338 3.26751 0.0666703 0.208315 0.0417344 -0.601251 0.0025 
107 1 0.129667 0.0772297 0.00275786 0 0 0 0 0 0 0 0 0 0 0 0 0.0025 
108 1 0.076772 0.066739 0.00250149 0 0 0 -0.0347301 -0.0608002 -0.000863738 -1.60747 -2.81412 -0.041035 -0.000351233 0.00020063 6.52477e-15 0.0025 
109 1 0.0940282 0.0327791 0.00289816 0 0 0 0.00544699 0.000172921 0.000380843 1.14456 0.0362159 0.0805135 -6.92851e-06 -6.05938e-06 0.00010135 0.0025 
110 1 0.0699753 0.0691107 0.00255599 0 0 0 0.0508817 0.214994 -0.00819725 0.305418 3.44371 -0.114798 -0.986425 -0.453562 -17.4483 0.0025 
111 1 0.0283134 0.0389172 0.0029122 0 0 0 0.0302755 0.146402 0.00551983 0.312835 2.40236 0.0897724 0.0439485 0.0571552 -1.69517 0.0025 
112 1 0.0865324 0.101699 0.00280147 0 0 0 -0.0219332 -0.000975644 0.00103734 -2.17716 -0.0968456 0.104309 3.07862e-06 -6.92097e-05 2.30548e-15 0.0025 
113 1 0.0886502 0.0464414 0.00297539 0 0 0 -0.169082 0.00597641 0.013337 0.0154115 -2.15957 0.316949 -0.669289 -0.681156 -8.40902 0.0025 
114 1 0.0945557 0.119971 0.0026761 0 0 0 0.0196169 -0.0343401 -0.000508704 1.92417 -3.38775 -0.0515238 0.237013 0.161894 -1.79036 0.0025 
115 1 0.0272249 0.0342342 0.0027232 0 0 0 -0.125698 -0.13669 -0.00890916 -4.43432 -1.7233 -0.280262 -0.430377 -1.30782 7.64169 0.0025 
116 1 0.0816052 0.044338 0.00265502 0 0 0 0 0 0 0 0 0 0 0 0 0.0025 
117 1 0.0200881 0.0589072 0.00250354 0 0 0 0.0686891 0.00944769 -0.00280091 3.19907 0.440008 -0.133878 0.000176079 -0.00128017 1.26994e-14 0.0025 
118 1 0.039894 0.126287 0.00250873 0 0 0 0.139563 -0.0622813 -0.00207309 3.06357 -1.3836 -0.061523 -0.22906 -0.695888 5.43456 0.0025 
119 1 0.0919215 0.128938 0.00253404 0 0 0 0.00261461 0.0824132 -0.00396112 1.03454 2.25353 -0.153478 -0.245395 0.357045 7.28812 0.0025 
120 1 0.0694987 0.028062 0.00263767 0 0 0 0 0 0 0 0 0 0 0 0 0.0025 
121 1 0.0143749 0.0374511 0.00257945 0 0 0 0 0 0 0 0 0 0 0 0 0.0025 
122 1 0.11185 0.0936165 0.00279915 0 0 0 0 0 0 0 0 0 0 0 0 0.0025 
123 1 0.1134 0.099632 0.00252902 0 0 0 0 0 0 0 0 0 0 0 0 0.0025 
124 1 0.113613 0.0227472 0.0027521 0 0 0 -0.015026 -0.00121685 0.000627231 -1.84256 -0.149216 0.0777289 1.87556e-06 -2.316e-05 1.62347e-16 0.0025 
125 1 0.0573363 0.0654343 0.00281268 0 0 0 0 0 0 0 0 0 0 0 0 0.0025 
126 1 0.0523675 0.0900808 0.00272854 0 0 0 0.0795362 0.109381 -0.000158149 1.70754 2.34827 -0.00356471 0.000254822 -0.000185293 1.02679e-13 0.0025 
127 1 0.0709387 0.125992 0.00288799 0 0 0 -0.0207104 0.00112915 0.0011889 -2.64342 0.149882 0.153654 0.0358345 0.0726681 0.554762 0.0025 
128 1 0.106631 0.0669442 0.00258938 0 0 0 -0.0880147 0.0221061 -0.00550384 -4.1714 1.53424 -0.328689 0.0863905 -0.53557 -3.52193 0.0025 
129 1 0.117069 0.0795405 0.00284412 0 0 0 0.027058 -0.133824 -0.00105287 0.419151 -2.74954 -0.0200094 0.0216129 -0.00539483 1.20306 0.0025 
130 1 0.0175526 0.0332408 0.00268098 0 0 0 -0.164375 -0.0215312 -0.00870997 -2.39741 -0.0803706 -0.127737 -0.155645 -0.0730483 3.00672 0.0025 
131 1 0.0428886 0.0665222 0.00269816 0 0 0 0.0204084 0.0121619 -0.000290373 2.70566 1.60103 -0.0401015 -0.0983236 0.140686 -1.01834 0.0025 
132 1 0.0277163 0.090937 0.00276503 0 0 0 0 0 0 0 0 0 0 0 0 0.0025 
133 1 0.0637783 0.104753 0.00279268 0 0 0 0.0386649 0.0365319 0.00250937 -0.358193 -1.56022 0.00521513 0.168928 -0.0455881 -8.11507 0.0025 
134 1 0.0625534 0.0386323 0.00276656 0 0 0 0 0 0 0 0 0 0 0 0 0.0025 
135 1 0.0221003 0.0974557 0.00270088 0 0 0 -0.10653 -0.0319541 0.00302706 -3.10099 -0.930159 0.0915698 0.00105321 -0.00351123 2.9295e-14 0.0025 
136 1 0.117079 0.0499625 0.00279775 0 0 0 -0.0296161 0.127298 0.00153255 -0.677391 2.91161 0.0367184 -0.00270408 -0.000629109 -3.13117e-13 0.0025 
137 1 0.051047 0.0642259 0.00252491 0 0 0 0.0690586 -0.110499 -0.00203709 1.43055 -2.52041 -0.0526799 -0.044013 -0.0555936 1.48576 0.0025 
138 1 0.0360023 0.111818 0.00280493 0 0 0 0.0493841 -0.0011572 0.00282589 2.95732 -0.0692977 0.172772 1.67362e-05 0.000714227 -1.15113e-15 0.0025 
139 1 0.083909 0.0141405 0.00286097 0 0 0 0.0786526 -0.0500542 -0.000503724 3.96819 -2.51081 -0.0255992 0.43657 0.75732 -7.05718 0.0025 
140 1 0.0533759 0.122389 0.00256926 0 0 0 0 0 0 0 0 0 0 0 0 0.0025 
141 1 0.0347324 0.0270191 0.00288135 0 0 0 -0.0151476 0.0416484 0.00214427 -0.977465 2.68754 0.141074 -0.000422462 -0.00015365 -9.22574e-15 0.0025 
142 1 0.0894195 0.0620853 0.00269157 0 0 0 0.0473548 0.0853018 -0.0049707 2.55585 1.7967 -0.238573 0.0881339 0.00929328 1.05654 0.0025 
143 1 0.0571469 0.0796639 0.00257548 0 0 0 0.046811 -0.0195364 -0.00741126 1.40069 -2.45454 -0.53466 -0.106687 -0.53417 -6.96884 0.0025 
144 1 0.0222922 0.0340402 0.00295084 0 0 0 0.108121 0.117647 0.0093986 -0.38999 3.25644 0.164154 0.271211 0.255795 -6.35306 0.0025 
145 1 0.13225 0.0660911 0.00270709 0 0 0 0 0 0 0 0 0 0 0 0 0.0025 
146 1 0.0978091 0.127782 0.0028649 0 0 0 -0.0697472 -0.0188799 0.00399902 -3.60372 -0.985944 0.211872 -0.876514 1.06439 -10.2497 0.0025 
147 1 0.0684395 0.104722 0.00290143 0 0 0 0.0678021 -0.160884 0.00195854 4.12218 0.579148 0.102258 0.27245 0.0574131 -11.8535 0.0025 
148 1 0.0614647 0.122867 0.00265538 0 0 0 0.0436604 0.153839 -0.0025313 0.70008 2.34699 -0.0429237 0.0181535 -0.00178093 0.196342 0.0025 
149 1 0.0855392 0.0649895 0.00297341 0 0 0 -0.0291909 -0.00339526 0.00184835 -3.08858 0.0856078 0.202526 0.0712713 -0.0276622 0.392448 0.0025 
150 1 0.0380429 0.106979 0.00262843 0 0 0 -0.133826 -0.0553918 0.000261888 -4.75676 0.14893 -0.0776213 -0.681501 -0.279175 8.80804 0.0025 
151 1 0.0601674 0.118237 0.00273432 0 0 0 -0.00837936 -0.114719 0.000618225 2.06452 0.716084 -0.109492 -0.0977841 -0.00598733 -2.02649 0.0025 
152 1 0.107284 0.0493171 0.00293151 0 0 0 0.0252621 0.087959 0.00827681 -0.429952 -3.15816 0.118631 0.0584527 0.138374 -3.85634 0.0025 
153 1 0.0568305 0.114963 0.00291743 0 0 0 -0.035281 -0.0391201 0.00191308 -2.7646 -3.06308 0.152416 -0.115938 -0.0042064 -2.22283 0.0025 
154 1 0.102917 0.0539128 0.00281988 0 0 0 -0.0317455 0.00187573 -0.000210081 -2.07262 -0.100987 -0.0130157 -0.00782904 0.0137942 1.39202 0.0025 
155 1 0.103108 0.13296 0.00298367 0 0 0 0.0247622 0.17611 0.016583 0.236086 0.44207 0.0383046 -0.0372026 -0.120725 1.25265 0.0025 
156 1 0.0451037 0.0267406 0.00288392 0 0 0 -0.0210806 -0.00148378 0.000738075 -2.09695 -0.173532 0.0750843 -0.0415197 -0.03664 -1.25807 0.0025 
157 1 0.0754945 0.0852744 0.00277825 0 0 0 0.111225 0.0389105 0.00852021 -1.14731 1.68176 0.280569 0.0265161 0.351202 -1.95697 0.0025 
158 1 0.105553 0.0894016 0.00272134 0 0 0 0 0 0 0 0 0 0 0 0 0.0025 
159 1 0.0887622 0.11909 0.00280598 0 0 0 0.000288345 -8.082e-05 -8.33824e-06 0.300759 -0.0841966 -0.00870528 0.00134446 0.00258294 0.0214574 0.0025 
160 1 0.129707 0.119828 0.00263652 0 0 0 0 0 0 0 0 0 0 0 0 0.0025 
161 1 0.0767297 0.0585024 0.00270363 0 0 0 -0.169661 0.0383036 -0.00649422 0.507595 2.40924 0.0920964 -0.0653264 -0.0372779 2.66167 0.0025 
162 1 0.0178584 0.0281731 0.00297327 0 0 0 0 0 0 0 0 0 0 0 0 0.0025 
163 1 0.132385 0.0951298 0.00285702 0 0 0 -8.86058e-08 3.46847e-09 3.27688e-09 -0.00395403 0.00015478 0.00014623 -5.48048e-07 4.33178e-08 -1.48649e-05 0.0025 
164 1 0.0451451 0.113641 0.00273998 0 0 0 -0.0257374 0.0738816 -0.00384053 -1.29696 3.54962 -0.204847 -0.196624 -0.107248 -0.818083 0.0025 
165 1 0.0509178 0.0182504 0.00283814 0 0 0 -0.00596283 -0.00915082 -1.79177e-06 -0.908672 -1.38662 0.000156407 0.00628235 -0.00410824 0.073687 0.0025 
166 1 0.0865054 0.0277962 0.00257289 0 0 0 0 0 0 0 0 0 0 0 0 0.0025 
167 1 0.0271635 0.105036 0.00284697 0 0 0 0 0 0 0 0 0 0 0 0 0.0025 
168 1 0.0913517 0.101913 0.00257061 0 0 0 0.0219332 0.000975644 -0.00103734 2.17716 0.0968456 -0.104309 3.07862e-06 -6.92097e-05 2.30548e-15 0.0025 
169 1 0.0983967 0.0707748 0.00293154 0 0 0 -0.136741 -0.1558 0.00312361 -1.09153 -1.76702 0.0513097 0.175894 -0.276564 -5.8474 0.0025 
170 1 0.119127 0.100823 0.00300623 0 0 0 0.017754 0.145252 0.0105603 0.659943 0.97399 0.190012 -0.0372476 0.00255896 -0.0537936 0.0025 
171 1 0.0803074 0.0170584 0.00295338 0 0 0 0.0924575 0.0869997 0.0154666 -2.15089 2.76091 0.183007 0.338853 0.698673 -5.85512 0.0025 
172 1 0.0686316 0.0938971 0.00285539 0 0 0 0 0 0 0 0 0 0 0 0 0.0025 
173 1 0.0149449 0.0653159 0.00260097 0 0 0 0 0 0 0 0 0 0 0 0 0.0025 
174 1 0.0659172 0.126567 0.00283409 0 0 0 0 0 0 0 0 0 0 0 0 0.0025 
175 1 0.116031 0.0842097 0.00288422 0 0 0 -0.111001 0.12778 0.00264306 -4.93117 1.93123 0.127785 -0.0966573 -0.325094 -6.13721 0.0025 
176 1 0.113135 0.0430701 0.00291424 0 0 0 -0.0104131 0.0296034 0.0020225 -1.15352 3.29433 0.225594 0.189487 0.169871 -1.51107 0.0025 
177 1 0.109662 0.117439 0.00298598 0 0 0 0.00557672 0.0648184 0.00587288 0.271202 3.1522 0.292832 -0.00243534 0.000209527 -2.04715e-14 0.0025 
178 1 0.0972196 0.090302 0.00273325 0 0 0 0.000458564 -0.00200317 8.08341e-05 0.158969 -0.698185 0.0282103 -0.000340484 9.03101e-05 0.00416618 0.0025 
179 1 0.104367 0.12309 0.00265866 0 0 0 0 0 0 0 0 0 0 0 0 0.0025 
180 1 0.026166 0.0588873 0.00264882 0 0 0 0.00636322 -0.164045 -0.00703495 0.0743404 -1.91651 -0.0886782 -0.0282947 -0.00109754 1.52779e-13 0.0025 
181 1 0.131987 0.0825374 0.0026891 0 0 0 0.0369625 -0.126262 -0.0013354 0.835561 -2.85424 -0.0316349 -0.00236376 -0.000691977 -7.54291e-13 0.0025 
182 1 0.0380272 0.0565354 0.00266654 0 0 0 0.0541518 -0.118896 0.00247412 0.106419 -0.176627 0.0422952 -0.887347 -0.12275 13.374 0.0025 
183 1 0.0151912 0.11114 0.00250573 0 0 0 0 0 0 0 0 0 0 0 0 0.0025 
184 1 0.0224822 0.0815331 0.00281264 0 0 0 -0.00117219 -0.000920713 6.73768e-05 -0.478929 -0.376182 0.0276172 4.65272e-08 -5.92353e-08 4.35925e-18 0.0025 
185 1 0.0934597 0.0799943 0.00288492 0 0 0 -0.0975977 0.0673047 0.00387555 -2.77901 1.86029 0.113608 -0.011216 0.00403458 -0.343221 0.0025 
186 1 0.0642356 0.025567 0.00257608 0 0 0 0 0 0 0 0 0 0 0 0 0.0025 
187 1 0.10865 0.0264163 0.00288185 0 0 0 0 0 0 0 0 0 0 0 0 0.0025 
188 1 0.120312 0.0886022 0.00277308 0 0 0 -0.0227336 0.109267 -0.000181284 -0.761695 3.39861 0.001261 -0.61329 -0.144134 -9.90546 0.0025 
189 1 0.132632 0.110792 0.00277136 0 0 0 0.140985 0.0969863 -0.00705019 1.20742 0.830605 -0.066394 0.0204002 -0.029655 3.93655e-13 0.0025 
190 1 0.0908939 0.0932767 0.00262554 0 0 0 0 0 0 0 0 0 0 0 0 0.0025 
191 1 0.0623777 0.0626222 0.00299873 0 0 0 0 0 0 0 0 0 0 0 0 0.0025 
192 1 0.0828787 0.132246 0.00268954 0 0 0 -0.143214 0.0358974 -0.000832355 -0.820867 1.8542 0.0337507 0.0118497 -0.0294506 0.506115 0.0025 
193 1 0.0681312 0.11999 0.00290436 0 0 0 0 0 0 0 0 0 0 0 0 0.0025 
194 1 0.0589385 0.0718486 0.00275265 0 0 0 0.000456771 -0.000381804 -1.59582e-05 0.401049 -0.334763 -0.0140453 0.00134814 0.000609981 0.023994 0.0025 
195 1 0.125956 0.0441624 0.00298789 0 0 0 0.0148201 0.0680535 0.00563997 0.523863 2.8677 0.244353 -0.00322541 0.220046 -2.62615 0.0025 
196 1 0.061555 0.131114 0.00258809 0 0 0 0 0 0 0 0 0 0 0 0 0.0025 
197 1 0.0311515 0.0155657 0.00294612 0 0 0 0 0 0 0 0 0 0 0 0 0.0025 
198 1 0.103826 0.0198487 0.00255924 0 0 0 0.156601 0.0385809 -0.0142412 2.07259 0.496348 -0.197861 0.01392 -0.0331815 0.0602373 0.0025 
199 1 0.0252291 0.0532609 0.00296983 0 0 0 -0.0188063 0.076952 0.00109488 -0.88895 3.62528 0.0549544 -0.020928 -0.00452342 -0.0410175 0.0025 
200 1 0.053175 0.0953218 0.00291395 0 0 0 0 0 0 0 0 0 0 0 0 0.0025 
201 1 0.118159 0.0453202 0.00273969 0 0 0 0.0296161 -0.127298 -0.00153255 0.677391 -2.91161 -0.0367184 -0.00270408 -0.000629109 -3.13117e-13 0.0025 
202 1 0.0479177 0.0518913 0.00265993 0 0 0 0.0172514 -0.116239 -0.00653917 -0.67112 -1.20562 -0.0256927 0.104439 -0.165505 2.228 0.0025 
203 1 0.123277 0.108697 0.00289554 0 0 0 0 0 0 0 0 0 0 0 0 0.0025 
204 1 0.106754 0.0763487 0.0027955 0 0 0 -0.00566589 0.0166452 0.000336973 -0.64005 1.87691 0.0384083 2.58708e-05 4.74955e-05 -0.00189435 0.0025 
205 1 0.11777 0.0736431 0.00266092 0 0 0 0.120897 0.0306254 -0.00482284 2.98774 0.756715 -0.124423 0.00187483 -0.00736902 0.000196388 0.0025 
206 1 0.0778898 0.0341058 0.00266026 0 0 0 -0.100367 -0.103483 -0.00158144 1.73343 1.61398 -0.0134721 0.134213 -0.103608 -4.83289 0.0025 
207 1 0.0484265 0.068216 0.00259772 0 0 0 -0.133253 0.0769974 -0.00116897 -3.42241 0.117025 -0.154381 0.111806 0.140604 -3.49273 0.0025 
208 1 0.128611 0.108026 0.00298354 0 0 0 -0.140985 -0.0969863 0.00705019 -1.20742 -0.830605 0.066394 0.0204002 -0.029655 3.93655e-13 0.0025 
209 1 0.020822 0.0899919 0.00255293 0 0 0 0 0 0 0 0 0 0 0 0 0.0025 
210 1 0.0855569 0.0852259 0.00260071 0 0 0 -0.0462395 -0.130683 0.000929347 -0.944032 -2.66805 0.0199582 0.00187622 -0.00066386 -1.53738e-14 0.0025 
211 1 0.0300482 0.0236831 0.0029965 0 0 0 0.0249082 0.0290107 0.00193394 1.76945 2.06089 0.139842 -0.000240313 0.000206329 1.74978e-16 0.0025 
212 1 0.0331718 0.0503789 0.00287216 0 0 0 -0.0915929 0.206338 -0.00103892 -1.71398 4.05316 0.00243784 -1.16096 -0.469738 8.81815 0.0025 
213 1 0.0932842 0.0446807 0.00270567 0 0 0 0.164291 -0.0651388 -0.00888048 -0.567411 0.0158696 0.00195396 0.0561489 -0.0159807 1.08896 0.0025 
214 1 0.0724858 0.113347 0.00260351 0 0 0 0 0 0 0 0 0 0 0 0 0.0025 
215 1 0.0810731 0.030365 0.0029813 0 0 0 0.00178225 -0.003349 0.000228353 0.479312 -0.890809 0.0612947 -0.0340943 0.024933 0.631786 0.0025 
216 1 0.0135972 0.117517 0.00250066 0 0 0 0 0 0 0 0 0 0 0 0 0.0025 
217 1 0.0620969 0.0445647 0.00250697 0 0 0 0.115097 -0.217099 -0.0173785 2.16882 -2.30347 -0.19194 0.620214 0.579155 11.9105 0.0025 
218 1 0.034006 0.103766 0.00298282 0 0 0 0 0 0 0 0 0 0 0 0 0.0025 
219 1 0.125175 0.13059 0.00288149 0 0 0 0 0 0 0 0 0 0 0 0 0.0025 
220 1 0.114915 0.113014 0.00281334 0 0 0 -0.0435233 0.0216225 0.000139782 -2.62424 2.44395 0.0514791 0.13374 0.0188646 -0.862411 0.0025 
221 1 0.0523735 0.0790572 0.00294143 0 0 0 -0.13807 0.131453 0.00519838 -2.19126 -0.625688 0.174685 -0.696603 -0.308487 -9.69225 0.0025 
222 1 0.048711 0.124892 0.00288542 0 0 0 0 0 0 0 0 0 0 0 0 0.0025 
223 1 0.0494154 0.0313924 0.00259849 0 0 0 -0.0314557 0.0644523 -0.00269621 -2.86278 0.422543 -0.130146 -0.183098 0.182131 -1.03068 0.0025 
224 1 0.0900675 0.0509496 0.00258465 0 0 0 0.00491232 0.0627938 -0.00418845 0.249246 3.38034 -0.23 -0.764453 -0.607773 -9.99782 0.0025 
225 1 0.0889261 0.0208284 0.00278882 0 0 0 0 0 0 0 0 0 0 0 0 0.0025 
226 1 0.0858152 0.0702886 0.00264669 0 0 0 -0.0473158 0.0283685 -0.0011618 -2.04439 0.241796 -0.0620178 -0.0325497 -0.00246179 -1.15799 0.0025 
227 1 0.0573217 0.0588848 0.00299335 0 0 0 0.00175466 0.0175372 0.0012709 0.196857 1.96645 0.144155 -6.09177e-05 1.94846e-06 5.66224e-05 0.0025 
228 1 0.123376 0.066043 0.00250668 0 0 0 0.138262 0.112766 -0.0109631 0.350654 0.497871 -0.031898 -0.0600285 -0.0509987 -1.20317 0.0025 
229 1 0.0431654 0.0523005 0.00298097 0 0 0 -0.242261 0.00142434 0.0145322 -2.84353 -0.32932 0.169388 -0.630874 0.398319 -10.1707 0.0025 
230 1 0.0568855 0.102954 0.00264348 0 0 0 -0.0661346 0.0245377 -0.000191246 -3.29586 1.13961 -0.0123934 0.0654592 0.137702 -4.96568 0.0025 
231 1 0.130058 0.101487 0.00272655 0 0 0 0.12467 0.188691 -0.0106828 2.17379 2.80623 -0.124017 -1.34768 1.43623 9.34844 0.0025 
232 1 0.0320554 0.130878 0.00249387 0 0 0 0.0846472 0.110294 -0.0124308 -2.76435 4.28261 -0.22035 -0.189246 -0.185875 -14.3119 0.0025 
233 1 0.109257 0.112724 0.00254864 0 0 0 -0.00557672 -0.0648184 -0.00587288 -0.271202 -3.1522 -0.292832 -0.00243534 0.000209527 -2.04715e-14 0.0025 
234 1 0.124062 0.0301736 0.00272763 0 0 0 0.0256383 -0.0738531 0.0018738 1.34157 -3.76543 0.0976647 -0.0116983 -0.0869058 -3.25455 0.0025 
235 1 0.121676 0.123644 0.0027514 0 0 0 0 0 0 0 0 0 0 0 0 0.0025 
236 1 0.108314 0.0717626 0.00270157 0 0 0 0.00167644 -0.0172368 -0.000430033 -0.608596 -2.06046 -0.0676999 0.00350768 -0.0228075 -0.00589584 0.0025 
237 1 0.118596 0.0960577 0.00265525 0 0 0 -0.0299968 -0.147994 -0.0105142 -2.72481 -2.1481 -0.177769 -0.0200509 0.0780275 0.389096 0.0025 
238 1 0.0934753 0.0579492 0.00256974 0 0 0 0 0 0 0 0 0 0 0 0 0.0025 
239 1 0.11838 0.0316816 0.00263112 0 0 0 0.00558675 -0.169505 0.00188206 1.60374 -1.03934 0.0287298 0.0390289 -0.0891271 1.40354 0.0025 
240 1 0.0963307 0.0381749 0.00290893 0 0 0 0 0 0 0 0 0 0 0 0 0.0025 
241 1 0.0354758 0.127997 0.00253717 0 0 0 -0.0220899 2.83563e-05 -0.00895087 3.81469 -0.81609 -0.109084 -0.415111 -0.42409 -6.68713 0.0025 
242 1 0.0397031 0.0811567 0.00285076 0 0 0 0 0 0 0 0 0 0 0 0 0.0025 
243 1 0.0347777 0.041558 0.00262622 0 0 0 -0.0155687 -0.223697 -0.0124635 -0.0916622 -3.30608 -0.154331 0.87114 0.271736 -5.77844 0.0025 
244 1 0.023593 0.0161674 0.00299144 0 0 0 0.193746 0.00211524 0.00991723 1.51129 -0.351751 0.0782425 -0.22839 -0.0207987 4.21974 0.0025 
245 1 0.0680183 0.0600631 0.00301032 0 0 0 -0.0361693 -0.184212 0.0104973 -1.07627 -4.41386 0.274035 0.898809 0.749727 16.1134 0.0025 
246 1 0.0439994 0.086117 0.00284764 0 0 0 0 0 0 0 0 0 0 0 0 0.0025 
247 1 0.105298 0.0145171 0.0026222 0 0 0 0 0 0 0 0 0 0 0 0 0.0025 
248 1 0.0973429 0.0772828 0.00272431 0 0 0 0.057206 -0.0713088 -0.00340286 0.0242754 -2.04208 -0.0815024 0.0549164 0.121259 6.27832 0.0025 
249 1 0.0331142 0.124064 0.00268206 0 0 0 -0.121712 -0.180337 0.00511454 -3.0118 -4.3204 0.120183 -0.600509 0.60485 6.91785 0.0025 
250 1 0.0150469 0.0426627 0.00284408 0 0 0 0 0 0 0 0 0 0 0 0 0.0025 
251 1 0.0571692 0.0886048 0.00285445 0 0 0 -0.0958974 0.0496116 -0.00720358 -1.39728 -0.145694 -0.0843835 0.00373901 0.048293 -3.01806 0.0025 
252 1 0.0167062 0.0231463 0.00264248 0 0 0 -0.00315364 0.00274115 -0.000215414 -0.80501 0.703334 -0.0552507 -0.0241094 -0.00366952 0.306233 0.0025 
253 1 0.0427554 0.019987 0.00288641 0 0 0 0 0 0 0 0 0 0 0 0 0.0025 
254 1 0.0529311 0.0697651 0.00278645 0 0 0 0.0662258 0.030435 0.00297562 2.68125 1.36167 0.128497 0.138627 0.174983 -4.84771 0.0025 
255 1 0.078368 0.098791 0.00289612 0 0 0 0 0 0 0 0 0 0 0 0 0.0025 