# vtk DataFile Version 4.0
Generated by LIGGGHTS
ASCII
DATASET POLYDATA
POINTS 415 float
0.0652406 0.0184298 0.00252234 0.0698392 0.0182213 0.00300579 0.0922442 0.0185898 0.00250321 
0.123255 0.0183235 0.00258651 0.0235564 0.0205657 0.00271279 0.028374 0.0211101 0.00302037 
0.0348647 0.0206608 0.00294612 0.0430648 0.0199541 0.00262534 0.0495024 0.0189052 0.00297806 
0.0595727 0.0204858 0.00286125 0.0749568 0.0209461 0.00247266 0.0833066 0.0191357 0.00285881 
0.0879887 0.0206171 0.00285921 0.102431 0.0197022 0.00262184 0.109196 0.0191533 0.00277508 
0.118656 0.0208078 0.00250902 0.0192105 0.0228612 0.0025203 0.0527796 0.0229609 0.0028384 
0.0706208 0.0230398 0.00286667 0.0797128 0.0223236 0.00299248 0.0967667 0.023377 0.00305075 
0.106049 0.0228775 0.00293835 0.113489 0.0220667 0.0028586 0.12621 0.0223929 0.0027748 
0.0255049 0.0251004 0.00294028 0.0309399 0.0246488 0.00273367 0.0454397 0.0246902 0.00288641 
0.0661362 0.0244122 0.00270286 0.0875163 0.0254588 0.0027888 0.0922631 0.024073 0.00283658 
0.10149 0.0246563 0.00252254 0.1218 0.0244216 0.00277101 0.0215929 0.0276332 0.00263317 
0.0340132 0.0282381 0.0030092 0.0396981 0.0267821 0.00263342 0.0551659 0.0269052 0.0028574 
0.0735522 0.0269969 0.00276882 0.109846 0.027192 0.00275965 0.11459 0.027576 0.00254057 
0.125476 0.0274357 0.00258105 0.0595846 0.0282882 0.00253019 0.0650153 0.0297754 0.00257608 
0.0821501 0.0283084 0.00274077 0.0928254 0.0287784 0.00290315 0.0975129 0.0284826 0.00256385 
0.105506 0.0305024 0.00288389 0.119175 0.0292705 0.00261544 0.0227483 0.0321312 0.00297752 
0.0380593 0.0313201 0.00289497 0.0473992 0.0308229 0.00289096 0.0521837 0.0304714 0.0027268 
0.0587239 0.0325377 0.00259971 0.0698118 0.0320491 0.00263767 0.0755048 0.0322967 0.00277279 
0.0853287 0.0318266 0.0025719 0.100825 0.0315992 0.0026085 0.123652 0.0315552 0.00250249 
0.028628 0.0332028 0.00288482 0.0338615 0.0333696 0.0025942 0.0438056 0.0340783 0.00302976 
0.0512441 0.0351504 0.00258538 0.0636192 0.0348729 0.00297863 0.0804288 0.0340309 0.0029902 
0.104124 0.034842 0.00263569 0.110422 0.0326963 0.00254049 0.119631 0.0337088 0.00273971 
0.127924 0.034209 0.00277548 0.0220729 0.036762 0.00265651 0.0267863 0.0378285 0.00298246 
0.0309925 0.0374017 0.00268536 0.0399343 0.0361708 0.00246169 0.0590276 0.0373172 0.00308788 
0.0727998 0.0368097 0.00251256 0.0773769 0.0375346 0.00265288 0.0875963 0.0360863 0.00253475 
0.0922972 0.0363501 0.00290779 0.0993132 0.0361876 0.00287848 0.10935 0.037519 0.00278941 
0.114505 0.0350166 0.00263663 0.123103 0.0368168 0.00267924 0.0355199 0.0379945 0.00304874 
0.0464575 0.0377071 0.00265775 0.0543409 0.0382558 0.00255366 0.0673136 0.0378969 0.0026915 
0.105028 0.039313 0.00286303 0.114536 0.0400101 0.00257121 0.118713 0.0382152 0.00260261 
0.127451 0.0388919 0.00277282 0.019554 0.0406185 0.00257818 0.0323413 0.0423064 0.00292626 
0.0490656 0.0413179 0.00252526 0.0531607 0.04277 0.0027198 0.0634795 0.0416803 0.00276648 
0.0809905 0.0409054 0.00272205 0.0871035 0.0405909 0.00298525 0.0942601 0.0412438 0.00291011 
0.110443 0.0419944 0.00251427 0.0270178 0.042613 0.0026194 0.038128 0.0437344 0.00259422 
0.0445395 0.044575 0.00287295 0.0578244 0.0435002 0.00292454 0.0676577 0.0441179 0.00292145 
0.075823 0.043021 0.00251412 0.0852522 0.0447739 0.00251445 0.100171 0.0429668 0.00250764 
0.105687 0.0434224 0.00303311 0.119778 0.0423504 0.00257353 0.124719 0.043096 0.00264784 
0.0201891 0.0453635 0.00284453 0.0289608 0.0467105 0.00264173 0.0634129 0.0465509 0.00246211 
0.0720967 0.0456433 0.00265447 0.0808444 0.0468822 0.00265502 0.0959157 0.0456977 0.00263921 
0.109527 0.0460882 0.00293866 0.121305 0.0469853 0.00301117 0.0340458 0.0479247 0.0028051 
0.0386314 0.0485034 0.00300456 0.0487487 0.0480457 0.00254158 0.0534657 0.0471084 0.00299624 
0.0588559 0.0481487 0.00279354 0.0869857 0.0487863 0.00302945 0.0916596 0.0471165 0.00268933 
0.102892 0.0471336 0.00267655 0.114243 0.0474164 0.00273504 0.0245407 0.0502323 0.00291759 
0.0304572 0.0509573 0.00292174 0.0432665 0.0493985 0.0024907 0.0553364 0.0515985 0.00268149 
0.065807 0.0508522 0.00272227 0.0700878 0.049669 0.0025069 0.0756655 0.050842 0.00263773 
0.0968756 0.0508871 0.00295636 0.104276 0.051469 0.00295521 0.126924 0.0502861 0.00289597 
0.0364623 0.0527805 0.00287683 0.0409946 0.0537186 0.00258924 0.0453349 0.0540549 0.00302496 
0.0501571 0.0535033 0.00264558 0.071436 0.0538788 0.00285085 0.081047 0.0526742 0.00286502 
0.0885806 0.0532166 0.00256309 0.113147 0.0522679 0.00280171 0.117521 0.0538281 0.0027992 
0.0185172 0.0552283 0.0027063 0.0293736 0.0553735 0.0029768 0.0541674 0.0563171 0.00250571 
0.0584574 0.0555895 0.00263083 0.0643778 0.0560508 0.00267835 0.0755918 0.0556206 0.00247492 
0.0949235 0.0550419 0.00275048 0.100139 0.0555767 0.00281916 0.104897 0.0560482 0.00284601 
0.10928 0.0545805 0.00281467 0.122935 0.0557189 0.00274979 0.0355404 0.0569791 0.00279897 
0.0411547 0.0578843 0.00267071 0.0456691 0.0587898 0.00294917 0.113397 0.0574501 0.00275264 
0.0202261 0.0595591 0.00271237 0.0250723 0.0601996 0.00249087 0.030338 0.0597761 0.00263077 
0.0587365 0.0603166 0.00300723 0.0683354 0.0606541 0.00304534 0.0761205 0.0600662 0.00269933 
0.0812717 0.0592512 0.00293986 0.0862596 0.0587172 0.00291185 0.0916624 0.0592864 0.00256974 
0.0973002 0.0592972 0.00278372 0.103273 0.0610691 0.00266083 0.117976 0.0600695 0.00248614 
0.126122 0.0592456 0.0028639 0.0344934 0.0629448 0.00255529 0.038769 0.0616883 0.00252176 
0.0633222 0.063545 0.00299873 0.0730375 0.0633932 0.00247122 0.0882098 0.0632382 0.0026673 
0.109456 0.0619659 0.00297244 0.123255 0.0630165 0.00270194 0.0301329 0.0649337 0.00288442 
0.0417116 0.0653588 0.00282997 0.0531793 0.0646829 0.00251774 0.0684611 0.0655117 0.00278529 
0.0841731 0.0657209 0.00299191 0.09282 0.0649105 0.002851 0.0993939 0.0655922 0.00273164 
0.114973 0.0639102 0.00287704 0.0200951 0.0659999 0.00260097 0.0352604 0.0674652 0.00297803 
0.0458172 0.0672481 0.00269387 0.0587278 0.0661077 0.00281268 0.0762946 0.0670418 0.0024976 
0.0885457 0.0679253 0.00273453 0.103319 0.0675977 0.00255433 0.107623 0.0663563 0.00293166 
0.111961 0.068492 0.00284028 0.119204 0.0669029 0.00248237 0.126999 0.0667063 0.00270709 
0.050293 0.0686602 0.00257807 0.0549556 0.0701661 0.00279831 0.0651314 0.0685482 0.00268663 
0.0703552 0.0700493 0.00253342 0.0845107 0.0705189 0.00264062 0.020282 0.0711304 0.0028993 
0.0260421 0.0717247 0.00275345 0.0337961 0.0721377 0.00254469 0.041122 0.07153 0.0027641 
0.0482614 0.0724891 0.00296941 0.0603158 0.0718491 0.00274778 0.0787271 0.0712973 0.00256489 
0.0895205 0.0726249 0.0025075 0.0958294 0.0705779 0.00294091 0.105066 0.0717371 0.00269385 
0.109432 0.0724956 0.00287155 0.122975 0.0704067 0.00274434 0.0303625 0.0750474 0.0027 
0.037823 0.074947 0.00283171 0.0566493 0.0744666 0.00290238 0.0667321 0.0732065 0.00258943 
0.0737226 0.0737359 0.00265607 0.0846427 0.0750757 0.00260738 0.099485 0.0739274 0.00288575 
0.114167 0.0736812 0.00264571 0.119797 0.0743608 0.00253348 0.0209647 0.0757316 0.0030265 
0.0434228 0.0758198 0.0028155 0.0480477 0.0771867 0.00280951 0.0626813 0.0769676 0.00274179 
0.0795637 0.0758977 0.0028175 0.0952772 0.0766864 0.00271369 0.103708 0.076227 0.0027991 
0.124646 0.0768573 0.00275786 0.022763 0.0795726 0.00257909 0.0361133 0.079586 0.0028066 
0.0538139 0.0787422 0.0029611 0.0586536 0.0788744 0.00252263 0.0701495 0.078383 0.00253591 
0.0750573 0.0790166 0.00293991 0.0865539 0.0798943 0.00259683 0.0913463 0.0795494 0.00289925 
0.0996143 0.0789227 0.00262064 0.113222 0.0785997 0.00284151 0.0269946 0.0807291 0.00281958 
0.0426541 0.0804514 0.00285088 0.0660312 0.0803389 0.00262598 0.0795045 0.0823287 0.00249985 
0.102718 0.0824306 0.00299013 0.107583 0.0816951 0.00254241 0.126863 0.0813428 0.00268514 
0.0219705 0.0839719 0.00277439 0.0305966 0.0836319 0.00258308 0.0384466 0.0837213 0.00271632 
0.0569649 0.0828721 0.00304152 0.0705389 0.0834836 0.00255107 0.075364 0.0843614 0.0028118 
0.0842945 0.0838602 0.00260335 0.0895609 0.0837389 0.00277098 0.0969378 0.0833893 0.00285024 
0.111821 0.083385 0.00290449 0.116458 0.0826355 0.00284245 0.121275 0.083027 0.00249374 
0.0465715 0.0849554 0.00284763 0.0514229 0.0847516 0.00273473 0.0646689 0.0855282 0.0027676 
0.125476 0.0861916 0.0027443 0.0201178 0.0881727 0.00289276 0.0254511 0.0884879 0.00255293 
0.0317335 0.0893492 0.002765 0.0420194 0.0873919 0.00297466 0.0489623 0.0892227 0.00298503 
0.0542814 0.0888637 0.00272305 0.0584483 0.087277 0.00284009 0.0723179 0.0884003 0.00271555 
0.0859713 0.0885489 0.00256391 0.0950964 0.0886571 0.00273782 0.102689 0.0879241 0.00272101 
0.11091 0.0877186 0.00262833 0.116047 0.0875814 0.00277321 0.121236 0.0879676 0.00262613 
0.0366386 0.0895917 0.00298462 0.0623088 0.0898497 0.00289352 0.0893611 0.0915352 0.00262633 
0.0993702 0.0909594 0.00274577 0.108406 0.0917937 0.00279922 0.0183744 0.0917566 0.00266717 
0.0549414 0.0933806 0.00291516 0.0619657 0.0942862 0.00300576 0.0690212 0.0920472 0.00285541 
0.0799583 0.092052 0.0028755 0.0939154 0.0931777 0.00252484 0.114244 0.0936634 0.00262718 
0.118643 0.0933492 0.00256787 0.127103 0.0931433 0.0028591 0.0198303 0.0960723 0.00259439 
0.0262828 0.0951899 0.00271101 0.0310916 0.0966324 0.0025572 0.0482072 0.094165 0.00298367 
0.0734267 0.0953018 0.00301141 0.0779256 0.0965104 0.0028959 0.0843068 0.094247 0.00259981 
0.0979278 0.0954258 0.00286716 0.103014 0.0944454 0.00282505 0.123054 0.0950411 0.00310943 
0.0404774 0.0965158 0.00273817 0.0453236 0.0974645 0.00242089 0.062215 0.0982306 0.00260478 
0.0687788 0.0973128 0.00260806 0.093924 0.0980682 0.00265139 0.109821 0.0972732 0.00252902 
0.115141 0.0985036 0.0030365 0.0191911 0.100832 0.00287505 0.0374031 0.100993 0.00298815 
0.0540317 0.0987923 0.0029013 0.058132 0.100429 0.00263517 0.0730656 0.0999122 0.00267938 
0.0808812 0.100599 0.00273977 0.0852128 0.0991261 0.0028121 0.0898395 0.0993901 0.002559 
0.0997806 0.0996053 0.00277303 0.104054 0.101088 0.00267697 0.125347 0.0994502 0.00270106 
0.0244159 0.101821 0.00260534 0.0312303 0.102198 0.00284697 0.0451933 0.102193 0.00292093 
0.051151 0.102214 0.0029133 0.0646519 0.101932 0.00279747 0.0691271 0.101798 0.00292183 
0.075823 0.103848 0.00275744 0.114156 0.102684 0.00300265 0.0407474 0.103931 0.00261836 
0.0554814 0.104573 0.00288724 0.0621401 0.105877 0.00278231 0.0824575 0.105391 0.00296862 
0.0889273 0.104902 0.00253426 0.0971429 0.104086 0.00260016 0.102543 0.105507 0.00252453 
0.110075 0.105158 0.00252812 0.118821 0.105517 0.00289545 0.12339 0.104706 0.00300035 
0.0203196 0.10776 0.00250573 0.0267489 0.107856 0.00280242 0.0440239 0.1076 0.00249588 
0.0488433 0.106034 0.00302108 0.0690334 0.106705 0.0029044 0.12766 0.107659 0.0027548 
0.0346918 0.108486 0.00251139 0.0394909 0.108405 0.00282282 0.0475933 0.110324 0.00272517 
0.0657573 0.109849 0.00250116 0.0725463 0.109784 0.00260261 0.083336 0.110017 0.00265584 
0.0901586 0.110061 0.00260423 0.0952487 0.108853 0.00293597 0.10602 0.108917 0.00252093 
0.110979 0.109699 0.00281876 0.115751 0.108983 0.00287315 0.0260192 0.112536 0.00267311 
0.0322659 0.112659 0.00250982 0.0580215 0.110972 0.00293171 0.0997715 0.112685 0.00256386 
0.122367 0.111158 0.00252393 0.0188669 0.113573 0.00250066 0.0372888 0.114706 0.00277034 
0.0424941 0.115 0.00274454 0.0475891 0.11467 0.00268361 0.0614304 0.114097 0.00272759 
0.0785872 0.114273 0.00283256 0.0874949 0.114971 0.00280207 0.106416 0.113692 0.00301929 
0.116485 0.113697 0.0026339 0.0299468 0.116861 0.00272194 0.0685655 0.115827 0.00290436 
0.074406 0.116504 0.0025988 0.0830471 0.115617 0.00304125 0.0928254 0.115492 0.00267081 
0.111311 0.116553 0.00265676 0.124682 0.115678 0.00263652 0.0226881 0.118342 0.00255134 
0.0362724 0.119041 0.00269678 0.0551222 0.11801 0.00256899 0.0626125 0.118851 0.00264782 
0.0817004 0.120284 0.00259159 0.0909382 0.119548 0.00282331 0.101602 0.118615 0.00265952 
0.106539 0.118251 0.00265782 0.117363 0.119156 0.0027514 0.0281875 0.12152 0.00300064 
0.0432837 0.121362 0.00250088 0.0508636 0.120295 0.00288569 0.0664664 0.121829 0.0028336 
0.0709526 0.121303 0.00290416 0.0754704 0.121358 0.00257572 0.0862886 0.121272 0.00252443 
0.0389423 0.123058 0.00251544 0.0472215 0.12449 0.0025763 0.0579509 0.124045 0.00250698 
0.0791637 0.124001 0.00253114 0.0904376 0.124196 0.00251304 0.0952934 0.122838 0.00288432 
0.100138 0.122935 0.0024274 0.106725 0.124642 0.00271997 0.0184349 0.125708 0.00285339 
0.0233097 0.126865 0.00246785 0.0312549 0.12531 0.0027936 0.0357343 0.12621 0.00245378 
0.0418328 0.126966 0.00273953 0.0533835 0.125252 0.00263408 0.0625725 0.125964 0.00258809 
0.0758474 0.127303 0.00250719 0.0818358 0.12727 0.00269498 0.0865074 0.12612 0.00273274 
0.111469 0.126008 0.00294028 0.115966 0.126465 0.00276684 0.120575 0.125482 0.00288204 
0.100495 0.128019 0.00302036 
VERTICES 415 830
1 0 
1 1 
1 2 
1 3 
1 4 
1 5 
1 6 
1 7 
1 8 
1 9 
1 10 
1 11 
1 12 
1 13 
1 14 
1 15 
1 16 
1 17 
1 18 
1 19 
1 20 
1 21 
1 22 
1 23 
1 24 
1 25 
1 26 
1 27 
1 28 
1 29 
1 30 
1 31 
1 32 
1 33 
1 34 
1 35 
1 36 
1 37 
1 38 
1 39 
1 40 
1 41 
1 42 
1 43 
1 44 
1 45 
1 46 
1 47 
1 48 
1 49 
1 50 
1 51 
1 52 
1 53 
1 54 
1 55 
1 56 
1 57 
1 58 
1 59 
1 60 
1 61 
1 62 
1 63 
1 64 
1 65 
1 66 
1 67 
1 68 
1 69 
1 70 
1 71 
1 72 
1 73 
1 74 
1 75 
1 76 
1 77 
1 78 
1 79 
1 80 
1 81 
1 82 
1 83 
1 84 
1 85 
1 86 
1 87 
1 88 
1 89 
1 90 
1 91 
1 92 
1 93 
1 94 
1 95 
1 96 
1 97 
1 98 
1 99 
1 100 
1 101 
1 102 
1 103 
1 104 
1 105 
1 106 
1 107 
1 108 
1 109 
1 110 
1 111 
1 112 
1 113 
1 114 
1 115 
1 116 
1 117 
1 118 
1 119 
1 120 
1 121 
1 122 
1 123 
1 124 
1 125 
1 126 
1 127 
1 128 
1 129 
1 130 
1 131 
1 132 
1 133 
1 134 
1 135 
1 136 
1 137 
1 138 
1 139 
1 140 
1 141 
1 142 
1 143 
1 144 
1 145 
1 146 
1 147 
1 148 
1 149 
1 150 
1 151 
1 152 
1 153 
1 154 
1 155 
1 156 
1 157 
1 158 
1 159 
1 160 
1 161 
1 162 
1 163 
1 164 
1 165 
1 166 
1 167 
1 168 
1 169 
1 170 
1 171 
1 172 
1 173 
1 174 
1 175 
1 176 
1 177 
1 178 
1 179 
1 180 
1 181 
1 182 
1 183 
1 184 
1 185 
1 186 
1 187 
1 188 
1 189 
1 190 
1 191 
1 192 
1 193 
1 194 
1 195 
1 196 
1 197 
1 198 
1 199 
1 200 
1 201 
1 202 
1 203 
1 204 
1 205 
1 206 
1 207 
1 208 
1 209 
1 210 
1 211 
1 212 
1 213 
1 214 
1 215 
1 216 
1 217 
1 218 
1 219 
1 220 
1 221 
1 222 
1 223 
1 224 
1 225 
1 226 
1 227 
1 228 
1 229 
1 230 
1 231 
1 232 
1 233 
1 234 
1 235 
1 236 
1 237 
1 238 
1 239 
1 240 
1 241 
1 242 
1 243 
1 244 
1 245 
1 246 
1 247 
1 248 
1 249 
1 250 
1 251 
1 252 
1 253 
1 254 
1 255 
1 256 
1 257 
1 258 
1 259 
1 260 
1 261 
1 262 
1 263 
1 264 
1 265 
1 266 
1 267 
1 268 
1 269 
1 270 
1 271 
1 272 
1 273 
1 274 
1 275 
1 276 
1 277 
1 278 
1 279 
1 280 
1 281 
1 282 
1 283 
1 284 
1 285 
1 286 
1 287 
1 288 
1 289 
1 290 
1 291 
1 292 
1 293 
1 294 
1 295 
1 296 
1 297 
1 298 
1 299 
1 300 
1 301 
1 302 
1 303 
1 304 
1 305 
1 306 
1 307 
1 308 
1 309 
1 310 
1 311 
1 312 
1 313 
1 314 
1 315 
1 316 
1 317 
1 318 
1 319 
1 320 
1 321 
1 322 
1 323 
1 324 
1 325 
1 326 
1 327 
1 328 
1 329 
1 330 
1 331 
1 332 
1 333 
1 334 
1 335 
1 336 
1 337 
1 338 
1 339 
1 340 
1 341 
1 342 
1 343 
1 344 
1 345 
1 346 
1 347 
1 348 
1 349 
1 350 
1 351 
1 352 
1 353 
1 354 
1 355 
1 356 
1 357 
1 358 
1 359 
1 360 
1 361 
1 362 
1 363 
1 364 
1 365 
1 366 
1 367 
1 368 
1 369 
1 370 
1 371 
1 372 
1 373 
1 374 
1 375 
1 376 
1 377 
1 378 
1 379 
1 380 
1 381 
1 382 
1 383 
1 384 
1 385 
1 386 
1 387 
1 388 
1 389 
1 390 
1 391 
1 392 
1 393 
1 394 
1 395 
1 396 
1 397 
1 398 
1 399 
1 400 
1 401 
1 402 
1 403 
1 404 
1 405 
1 406 
1 407 
1 408 
1 409 
1 410 
1 411 
1 412 
1 413 
1 414 

POINT_DATA 415
FIELD FieldData 7
id 1 415 int
35 306 309 396 335 244 197 92 26 
327 267 139 98 247 412 334 47 165 
68 171 373 283 29 36 401 331 253 
395 225 31 198 30 252 211 312 49 
385 124 24 310 273 186 19 32 305 
187 329 162 141 156 103 391 120 276 
166 257 66 339 7 351 223 301 215 
261 264 234 376 130 144 115 256 326 
268 206 362 109 259 58 239 63 387 
70 9 71 369 400 367 354 121 111 
403 258 134 94 363 240 102 399 243 
51 72 21 17 311 25 384 75 338 
250 353 217 382 116 358 176 195 356 
342 95 392 64 113 213 85 201 54 
93 6 325 349 96 11 53 152 294 
212 38 229 202 322 8 224 136 271 
12 199 343 88 50 410 308 154 315 
288 77 37 182 413 286 307 117 180 
227 245 161 365 316 238 18 4 355 
279 289 411 191 314 142 324 297 269 
5 137 303 149 260 378 87 173 277 
131 125 108 405 128 296 372 228 145 
207 254 393 110 226 360 101 320 390 
27 194 290 40 169 236 366 23 46 
404 79 415 89 408 352 205 350 332 
99 16 270 3 248 204 107 55 45 
221 143 20 344 100 185 15 129 184 
242 61 73 317 379 181 106 284 41 
383 263 157 210 287 33 175 91 280 
246 39 56 347 97 209 132 274 298 
126 251 28 386 178 158 10 188 345 
65 388 190 293 122 262 200 291 172 
78 22 237 86 163 394 135 337 377 
370 255 368 321 340 397 285 57 406 
281 313 123 170 304 218 34 230 409 
69 112 168 282 381 231 275 167 1 
292 133 147 14 295 150 104 333 62 
323 328 60 336 203 208 183 302 371 
330 374 189 42 138 164 84 214 265 
90 44 233 220 357 361 278 153 48 
299 216 319 81 407 151 318 159 177 
266 2 193 414 402 114 380 160 83 
249 140 148 52 13 179 272 235 67 
118 222 174 127 300 398 241 43 59 
348 119 146 74 105 375 82 389 232 
364 346 196 80 192 359 76 341 219 
155 
type 1 415 int
1 1 1 1 1 1 1 1 1 
1 1 1 1 1 1 1 1 1 
1 1 1 1 1 1 1 1 1 
1 1 1 1 1 1 1 1 1 
1 1 1 1 1 1 1 1 1 
1 1 1 1 1 1 1 1 1 
1 1 1 1 1 1 1 1 1 
1 1 1 1 1 1 1 1 1 
1 1 1 1 1 1 1 1 1 
1 1 1 1 1 1 1 1 1 
1 1 1 1 1 1 1 1 1 
1 1 1 1 1 1 1 1 1 
1 1 1 1 1 1 1 1 1 
1 1 1 1 1 1 1 1 1 
1 1 1 1 1 1 1 1 1 
1 1 1 1 1 1 1 1 1 
1 1 1 1 1 1 1 1 1 
1 1 1 1 1 1 1 1 1 
1 1 1 1 1 1 1 1 1 
1 1 1 1 1 1 1 1 1 
1 1 1 1 1 1 1 1 1 
1 1 1 1 1 1 1 1 1 
1 1 1 1 1 1 1 1 1 
1 1 1 1 1 1 1 1 1 
1 1 1 1 1 1 1 1 1 
1 1 1 1 1 1 1 1 1 
1 1 1 1 1 1 1 1 1 
1 1 1 1 1 1 1 1 1 
1 1 1 1 1 1 1 1 1 
1 1 1 1 1 1 1 1 1 
1 1 1 1 1 1 1 1 1 
1 1 1 1 1 1 1 1 1 
1 1 1 1 1 1 1 1 1 
1 1 1 1 1 1 1 1 1 
1 1 1 1 1 1 1 1 1 
1 1 1 1 1 1 1 1 1 
1 1 1 1 1 1 1 1 1 
1 1 1 1 1 1 1 1 1 
1 1 1 1 1 1 1 1 1 
1 1 1 1 1 1 1 1 1 
1 1 1 1 1 1 1 1 1 
1 1 1 1 1 1 1 1 1 
1 1 1 1 1 1 1 1 1 
1 1 1 1 1 1 1 1 1 
1 1 1 1 1 1 1 1 1 
1 1 1 1 1 1 1 1 1 
1 
i 3 415 int
0 0 0 0 0 0 0 0 0 
0 0 0 0 0 0 0 0 0 
0 0 0 0 0 0 0 0 0 
0 0 0 0 0 0 0 0 0 
0 0 0 0 0 0 0 0 0 
0 0 0 0 0 0 0 0 0 
0 0 0 0 0 0 0 0 0 
0 0 0 0 0 0 0 0 0 
0 0 0 0 0 0 0 0 0 
0 0 0 0 0 0 0 0 0 
0 0 0 0 0 0 0 0 0 
0 0 0 0 0 0 0 0 0 
0 0 0 0 0 0 0 0 0 
0 0 0 0 0 0 0 0 0 
0 0 0 0 0 0 0 0 0 
0 0 0 0 0 0 0 0 0 
0 0 0 0 0 0 0 0 0 
0 0 0 0 0 0 0 0 0 
0 0 0 0 0 0 0 0 0 
0 0 0 0 0 0 0 0 0 
0 0 0 0 0 0 0 0 0 
0 0 0 0 0 0 0 0 0 
0 0 0 0 0 0 0 0 0 
0 0 0 0 0 0 0 0 0 
0 0 0 0 0 0 0 0 0 
0 0 0 0 0 0 0 0 0 
0 0 0 0 0 0 0 0 0 
0 0 0 0 0 0 0 0 0 
0 0 0 0 0 0 0 0 0 
0 0 0 0 0 0 0 0 0 
0 0 0 0 0 0 0 0 0 
0 0 0 0 0 0 0 0 0 
0 0 0 0 0 0 0 0 0 
0 0 0 0 0 0 0 0 0 
0 0 0 0 0 0 0 0 0 
0 0 0 0 0 0 0 0 0 
0 0 0 0 0 0 0 0 0 
0 0 0 0 0 0 0 0 0 
0 0 0 0 0 0 0 0 0 
0 0 0 0 0 0 0 0 0 
0 0 0 0 0 0 0 0 0 
0 0 0 0 0 0 0 0 0 
0 0 0 0 0 0 0 0 0 
0 0 0 0 0 0 0 0 0 
0 0 0 0 0 0 0 0 0 
0 0 0 0 0 0 0 0 0 
0 0 0 0 0 0 0 0 0 
0 0 0 0 0 0 0 0 0 
0 0 0 0 0 0 0 0 0 
0 0 0 0 0 0 0 0 0 
0 0 0 0 0 0 0 0 0 
0 0 0 0 0 0 0 0 0 
0 0 0 0 0 0 0 0 0 
0 0 0 0 0 0 0 0 0 
0 0 0 0 0 0 0 0 0 
0 0 0 0 0 0 0 0 0 
0 0 0 0 0 0 0 0 0 
0 0 0 0 0 0 0 0 0 
0 0 0 0 0 0 0 0 0 
0 0 0 0 0 0 0 0 0 
0 0 0 0 0 0 0 0 0 
0 0 0 0 0 0 0 0 0 
0 0 0 0 0 0 0 0 0 
0 0 0 0 0 0 0 0 0 
0 0 0 0 0 0 0 0 0 
0 0 0 0 0 0 0 0 0 
0 0 0 0 0 0 0 0 0 
0 0 0 0 0 0 0 0 0 
0 0 0 0 0 0 0 0 0 
0 0 0 0 0 0 0 0 0 
0 0 0 0 0 0 0 0 0 
0 0 0 0 0 0 0 0 0 
0 0 0 0 0 0 0 0 0 
0 0 0 0 0 0 0 0 0 
0 0 0 0 0 0 0 0 0 
0 0 0 0 0 0 0 0 0 
0 0 0 0 0 0 0 0 0 
0 0 0 0 0 0 0 0 0 
0 0 0 0 0 0 0 0 0 
0 0 0 0 0 0 0 0 0 
0 0 0 0 0 0 0 0 0 
0 0 0 0 0 0 0 0 0 
0 0 0 0 0 0 0 0 0 
0 0 0 0 0 0 0 0 0 
0 0 0 0 0 0 0 0 0 
0 0 0 0 0 0 0 0 0 
0 0 0 0 0 0 0 0 0 
0 0 0 0 0 0 0 0 0 
0 0 0 0 0 0 0 0 0 
0 0 0 0 0 0 0 0 0 
0 0 0 0 0 0 0 0 0 
0 0 0 0 0 0 0 0 0 
0 0 0 0 0 0 0 0 0 
0 0 0 0 0 0 0 0 0 
0 0 0 0 0 0 0 0 0 
0 0 0 0 0 0 0 0 0 
0 0 0 0 0 0 0 0 0 
0 0 0 0 0 0 0 0 0 
0 0 0 0 0 0 0 0 0 
0 0 0 0 0 0 0 0 0 
0 0 0 0 0 0 0 0 0 
0 0 0 0 0 0 0 0 0 
0 0 0 0 0 0 0 0 0 
0 0 0 0 0 0 0 0 0 
0 0 0 0 0 0 0 0 0 
0 0 0 0 0 0 0 0 0 
0 0 0 0 0 0 0 0 0 
0 0 0 0 0 0 0 0 0 
0 0 0 0 0 0 0 0 0 
0 0 0 0 0 0 0 0 0 
0 0 0 0 0 0 0 0 0 
0 0 0 0 0 0 0 0 0 
0 0 0 0 0 0 0 0 0 
0 0 0 0 0 0 0 0 0 
0 0 0 0 0 0 0 0 0 
0 0 0 0 0 0 0 0 0 
0 0 0 0 0 0 0 0 0 
0 0 0 0 0 0 0 0 0 
0 0 0 0 0 0 0 0 0 
0 0 0 0 0 0 0 0 0 
0 0 0 0 0 0 0 0 0 
0 0 0 0 0 0 0 0 0 
0 0 0 0 0 0 0 0 0 
0 0 0 0 0 0 0 0 0 
0 0 0 0 0 0 0 0 0 
0 0 0 0 0 0 0 0 0 
0 0 0 0 0 0 0 0 0 
0 0 0 0 0 0 0 0 0 
0 0 0 0 0 0 0 0 0 
0 0 0 0 0 0 0 0 0 
0 0 0 0 0 0 0 0 0 
0 0 0 0 0 0 0 0 0 
0 0 0 0 0 0 0 0 0 
0 0 0 0 0 0 0 0 0 
0 0 0 0 0 0 0 0 0 
0 0 0 0 0 0 0 0 0 
0 0 0 0 0 0 0 0 0 
0 0 0 0 0 0 0 0 0 
0 0 0 
v 3 415 double
-0.167463 -0.0570973 -0.0140752 0.0772471 -0.288465 0.0218825 0.0648608 -0.0309397 -0.00528608 
0.136145 -0.12151 0.000812473 0.0331548 -0.218034 -0.00274347 0.147447 -0.152676 0.0193879 
0 0 0 0 0 0 0 0 0 
0 0 0 -0.202986 -0.0365869 -0.0179834 0.248842 -0.153267 -0.0010925 
-0.0611073 0.0212567 0.00536527 -0.0190903 -0.0102779 -0.00122499 0.120995 -0.142589 -0.00587873 
-0.280129 -0.129057 -0.0097057 -0.33354 0.105659 -0.0151746 -0.102212 -0.148759 0.000425943 
0.119556 -0.0305693 0.00664214 -0.0410926 0.187118 0.0187073 0.0740695 -0.0829725 0.0236524 
-0.100155 0.152224 0.00720661 0 0 0 0.0947476 -0.0506507 0.00236958 
0.148372 0.0408559 0.0131815 -0.00731553 -0.0212935 -0.0163969 0 0 0 
-0.241137 0.075737 -0.00784025 -0.00230522 0.0100589 -0.000112212 -0.287853 -0.115706 -0.00711213 
0.208319 0.0448338 -0.0175529 -0.208587 0.050914 0.014879 -0.119407 0.0388188 -0.0117233 
0.122417 0.143287 0.00970496 0.0621797 -0.170222 -0.00920521 -0.0595094 0.0441634 0.0122125 
0.204748 0.302907 -0.00622301 -0.152339 -0.0123371 0.00672731 0.148772 0.0108196 -0.00676869 
0.2636 0.111664 -0.00654636 0.204014 -0.166536 -0.0179794 0 0 0 
-0.0368905 -0.0408387 0.00191666 -0.133864 0.150203 0.0102892 0.0739239 -0.0650215 -0.010353 
0.03876 -0.09524 0.00441063 -0.00542757 -0.144792 -0.00274614 -0.000442696 -0.0163559 0.0077945 
-0.0212387 0.144988 0.0115932 -0.148444 -0.0291267 0.00597829 0.135084 -0.193324 0.000110022 
0.0538884 -0.0502391 -0.0104781 0 0 0 0.0827637 -0.16036 0.00765311 
0.0321824 0.0325908 -0.00197917 0.0522331 -0.14659 -0.00981146 -0.11129 0.00782848 -0.0127759 
0.110449 -0.208575 0.000257629 -0.0404654 0.0204292 -0.00255962 -0.0731066 -0.270056 0.0296312 
-0.226305 -0.0277127 -0.00920483 -0.0271089 -0.0221899 0.00207104 0.0781792 -0.127357 0.00972865 
-0.0190528 -0.11148 -0.0144235 -0.116141 -0.280713 -0.00693483 0.00248172 -0.123501 0.0117088 
0.161274 0.0406236 0.00863675 -0.178569 0.021604 -0.0133225 -0.169866 0.154846 0.0210939 
-0.076174 -0.0831105 -0.0275566 0.132238 -0.036066 -0.0289612 0.260076 0.101763 0.0385264 
-0.318382 0.0525679 -0.0129876 0.0176946 0.104746 -0.00646369 -0.102116 -0.141654 -0.0209706 
0.135686 2.34776e-05 0.00966372 -0.0563307 0.173668 0.009621 -0.0969211 -0.139625 0.01497 
0.145014 -0.124292 0.00314385 -0.0648206 -0.0580738 -0.00272908 0.0966451 0.0377414 0.0311279 
-0.0532141 -0.0348962 -0.0117728 0.0346414 0.146677 -0.0202486 0.0271089 0.0221899 -0.00207104 
-0.00860729 -0.0981306 0.00418978 0.0346205 0.0999066 -0.00403666 0.118898 0.0125924 -0.00512284 
0.162078 0.139009 0.00377857 -0.0510656 0.0237247 -0.0032933 0.0292927 0.180218 0.00657578 
-0.187084 0.193313 -0.0219388 0.00124563 0.139882 -0.00508225 -0.0118091 -0.0109093 -0.000283383 
0.139744 0.130402 0.00206956 0.039941 -0.0322372 0.0273217 -0.00927723 -0.0465983 0.00250148 
-0.149612 0.195343 -0.0358482 -0.0931997 -0.194277 -0.00285714 -0.0278554 -0.35232 -0.0150846 
0 0 0 0.253662 0.11088 0.0127357 -0.0315215 -0.0131745 0.00356404 
0.249225 -0.206296 -0.00662217 -0.174295 -0.00834331 -0.0312435 -9.35793e-05 -0.000112722 -7.60846e-06 
0.0738622 -0.0158243 0.0260001 -0.116984 -0.0181816 -0.0145996 0.177524 0.00583435 0.000295164 
0.00308679 0.0258288 0.0013934 -0.00403096 -0.0538078 -0.0116228 0.205661 -0.278563 -0.0222029 
-0.016686 -0.0618995 0.00744398 -0.0042383 0.00155384 -5.50518e-06 0.216084 -0.0253215 -0.00620281 
-0.0215325 0.363006 0.0236065 0.0183769 0.167937 0.0143501 0.132921 -0.148664 -0.00433429 
-0.0295768 -0.0995556 0.0331326 -0.0117842 0.000518967 -0.000767502 -0.114864 0.0130267 0.0177979 
-0.114937 -0.0939915 0.0131495 -0.0770253 0.0271161 0.0392689 -0.0392193 0.00496531 -0.00522985 
-0.202613 -0.0305648 -0.0258438 0.0505972 -0.191058 -0.00248532 0 0 0 
-0.0124589 0.112755 0.0130774 0.314898 -0.112284 -0.0211794 -0.197552 0.316705 -0.00869127 
-0.171193 0.237585 0.0163229 0.13911 -0.0192534 -0.0273102 0.0063797 -0.230776 0.00561137 
0.0526262 -0.164274 0.00658286 0.00689346 -0.00561197 0.0131386 0 0 0 
-0.149176 0.0700932 0.00906608 -0.127001 -0.151653 -0.0171062 -0.124486 -0.105433 0.029031 
0.00222404 -0.122702 -0.00627362 -0.023483 0.197107 0.0214308 0 0 0 
0.0191683 0.228744 -0.015041 0.0113825 0.0516301 0.00149518 0.0735218 0.0414797 0.000163873 
-0.0346253 -0.0601863 0.000401521 -0.0785413 0.238366 0.00791021 0.0725546 0.135279 -0.0174052 
0.225859 -0.145828 -0.0073561 0 0 0 0.0376532 0.0477036 -0.0238404 
-0.153671 -0.0161792 -0.00744874 -0.067568 -0.0377965 -0.000259064 0.154943 0.355982 -0.00187495 
-0.0773244 0.0993985 0.000358131 -0.0303858 -0.0350708 -0.00105525 -0.0687868 0.236262 -0.00424163 
-0.0529318 0.0436024 0.000396681 0.127427 0.10786 0.0100861 0 0 0 
-0.155841 0.0331678 0.00774077 0.190466 0.0270185 -0.00814229 0.0143794 -0.131229 -0.010902 
0.0247608 0.158266 0.0122978 -0.0809353 -0.324215 0.0202432 -0.0662295 0.226269 0.00511548 
0.177753 -0.0193132 0.00745689 -0.0662687 -0.195113 0.0082976 0 0 0 
-0.00481442 0.257112 -0.000280876 0 0 0 0.0730825 -0.191606 -0.0110127 
0.0641125 -0.0104227 0.00292808 -0.260197 0.0149932 -0.0053532 -0.0117154 0.0408683 -0.0140391 
0 0 0 0.122964 -0.0602455 -0.0115488 0.173802 0.0305873 -0.0165543 
0.0792265 -0.26775 0.00579171 -0.0337267 0.0454935 -0.00187283 -0.0208563 0.18739 0.00877819 
-0.0976579 0.0980788 0.0145873 0.0947511 -0.185238 -0.00458237 0.0119591 -0.027518 0.0036861 
-0.208602 0.0201162 0.0157106 0.0026379 0.00102606 6.14077e-05 -0.194775 -0.0705029 0.00389895 
-0.212345 0.0769667 0.0220683 0 0 0 0.0164232 -0.216004 0.0189646 
0.224046 0.132529 -0.00376965 0 0 0 -0.0925507 -0.164079 -0.00249409 
0.241171 -0.0269849 -0.001156 -0.201845 0.0539208 -0.0288035 0.0642352 0.0396627 0.0184574 
0.230902 0.0692967 -0.000369746 0.139262 0.114639 -0.0110556 0 0 0 
-0.098434 -0.10507 -0.0200814 0.133623 0.0370268 0.00612606 -0.14025 0.110399 -0.0022536 
0.0564056 0.318995 -0.0116903 -0.0979548 -0.0546278 -0.00492701 -0.0646158 -0.313154 6.68627e-05 
0 0 0 -0.110073 0.0322057 -0.0235883 -0.00205723 -0.261148 -0.00246025 
-0.0790873 0.0637435 0.0209651 0.154373 -0.124873 -0.00582805 0.0808436 0.130238 0.000846004 
0.0110472 0.0203378 -0.00109422 -0.160022 -0.211606 0.00513006 -0.137748 -0.0783202 -0.00724168 
0.00889241 0.0419364 0.013208 0.118415 -0.147321 0.0071727 -0.0878184 0.0647093 0.00116882 
0.00546919 0.218019 0.0066346 -0.0424435 0.0116563 0.0060691 -0.00669417 0.0139036 -0.000102181 
4.29347e-06 5.04111e-06 6.63639e-08 0.122283 0.169513 -0.00672182 0.105201 -0.115253 0.00878609 
0.210653 0.0546813 -0.00816188 -0.118415 0.147321 -0.0071727 -0.109774 -0.236681 0.0357382 
-0.12011 0.0480744 0.00101139 0.253149 0.266892 -0.00319603 0.170281 -0.116857 0.00578676 
-0.163919 0.0714724 0.00803125 0.0292735 -0.123418 -0.00581703 -0.0344386 0.159843 0.00306275 
0 0 0 0.0840002 -0.0100684 -0.0483116 -0.0259942 -0.044924 0.000982424 
-0.229855 0.079353 0.0117654 0.0185361 -0.172262 -0.0431535 0.0465899 -0.104772 -0.0141942 
0.197472 0.0159856 0.0131804 0.0238073 -0.117648 -0.0010403 -0.148006 0.0396972 0.0100736 
0.189146 0.309591 -0.0169928 0.0253852 -0.190139 -0.00111661 0.0658447 -0.0524668 0.00867209 
-0.011276 0.0429222 0.000352044 -0.223147 0.100095 0.000566204 0.269255 -0.098523 -0.0134127 
0.0105969 0.0175161 0.0012654 -0.0613636 -0.0147221 -0.0039639 0.0537699 -0.182541 -0.00198183 
0.0463455 0.174061 0.00159133 0.104586 0.0812194 -0.00599725 0.0258532 0.0458214 -0.000979069 
-0.223612 -0.0260203 0.0337175 -0.22707 -0.0220845 -0.00789477 -0.0421852 0.120608 0.0213075 
-0.108647 -0.0733417 0.00128259 -0.0322524 0.0881576 -0.00110772 0 0 0 
-0.198618 -0.0320887 0.0205806 0.0732912 -0.14043 0.00872402 0.267096 -0.0360333 -0.0150136 
-0.0119777 -0.00711556 -2.08218e-05 -0.106609 -0.153637 -2.02635e-05 0.00103748 -0.00148174 -4.9827e-05 
0.0236701 0.136649 0.00380979 -0.019812 0.0850647 0.0194892 0 0 0 
-0.0042843 -0.000211805 -0.000190711 0 0 0 0.00348132 0.00622766 0.00019927 
-0.0748863 0.118977 -0.00795977 0.0267778 -0.0105261 -0.00353649 0.00272535 -0.00301491 -0.000114971 
-0.023214 0.0935262 -0.00260136 0.0174402 -0.134703 0.00495287 0.0500692 -0.0647929 -0.000834959 
-0.0599272 0.187293 -0.0102266 -0.0377604 0.209148 0.000486821 -0.0762154 0.0488266 -0.00179137 
0.0042843 0.000211805 0.000190711 0.237964 -0.0785223 -0.00401815 0.080331 0.0879311 0.0013607 
-0.0149026 -0.363237 -0.0047617 -0.00767003 0.0138598 0.000359811 -0.06625 -0.0852233 -0.013645 
0.0128307 0.0791782 0.00270113 0.0461825 0.0346056 0.0319875 -0.00272535 0.00301491 0.000114971 
-0.00553625 -0.00912835 0.000488466 -0.152042 0.0262874 -0.0136125 -0.297368 -0.168431 -0.0138089 
-0.0346503 -0.204661 -0.0219714 -0.00855269 -0.0446281 0.0021122 0.100984 0.0583114 -0.0144322 
-0.183634 -0.0550818 0.00542821 0.183634 0.0550818 -0.00542821 0.169302 -0.187745 0.0207907 
0.0640586 -0.261566 0.021266 0.065127 0.0113597 -0.000493195 0.00811998 0.00366666 -0.000533149 
0.0269091 0.0480661 0.0203628 0.133789 0.0754539 0.00203819 0.0137994 -0.0231944 0.0351282 
-0.221517 -0.0967581 0.00612776 0.0459388 -0.00152957 -0.042437 0.0381153 0.0340006 -0.034359 
-0.145504 -0.11205 -0.0202099 -0.0876109 0.0858652 -0.00363996 0 0 0 
0.0890216 -0.0735772 0.0163296 -0.0160318 0.283268 0.0121271 -0.106853 -0.0826321 0.00907509 