# vtk DataFile Version 4.0
Generated by LIGGGHTS
ASCII
DATASET POLYDATA
POINTS 415 float
0.0649901 0.0158171 0.00253272 0.0696486 0.0158802 0.00298699 0.0931399 0.0159601 0.00250626 
0.125545 0.0157991 0.00258561 0.021114 0.0182508 0.00271602 0.0260037 0.0186797 0.00300341 
0.0330081 0.0181133 0.00294612 0.0416071 0.0173722 0.00262534 0.0483579 0.0162722 0.00297806 
0.0589181 0.0179297 0.00286125 0.0752815 0.0184521 0.00249179 0.0835627 0.0166652 0.00286009 
0.088755 0.0180507 0.00285614 0.103867 0.0171111 0.0026222 0.110837 0.016672 0.00278064 
0.121174 0.0183872 0.00251941 0.0169387 0.0203056 0.00253545 0.0518747 0.0206436 0.00283816 
0.0704133 0.0206349 0.00286157 0.0800502 0.0196663 0.0029721 0.0979014 0.0210441 0.00302646 
0.107768 0.0202949 0.00293242 0.115457 0.0195875 0.0028586 0.128714 0.0199702 0.00277295 
0.0230655 0.0227041 0.00292905 0.028931 0.0223494 0.00274606 0.0440975 0.0223386 0.00288641 
0.0660179 0.0219785 0.00270969 0.0882214 0.0231427 0.00278882 0.0934487 0.0217889 0.00284262 
0.102649 0.0222522 0.0025417 0.124367 0.0220051 0.00275528 0.0191815 0.0253767 0.00264093 
0.0320052 0.0259307 0.00300063 0.0380181 0.0246932 0.00264183 0.0543661 0.0246133 0.00284755 
0.0733586 0.0244303 0.00277547 0.111767 0.0249726 0.00275411 0.116481 0.0253544 0.00254612 
0.127769 0.0250562 0.00258812 0.0587589 0.0262257 0.00254427 0.0646255 0.0276712 0.00257608 
0.0826131 0.0261543 0.00273981 0.0938929 0.0264982 0.00289506 0.0986284 0.0263507 0.00257155 
0.107071 0.0284818 0.00288189 0.121425 0.027233 0.0026171 0.0203039 0.0301591 0.00297344 
0.0364007 0.0291401 0.00288568 0.0462872 0.0287879 0.00288593 0.0510286 0.028609 0.00272581 
0.0579723 0.0306947 0.00261253 0.0696552 0.0300556 0.00263767 0.075532 0.0304958 0.00276437 
0.0859084 0.0298019 0.00257287 0.102118 0.0297332 0.00261716 0.126276 0.0295788 0.0025141 
0.0263413 0.0314765 0.00288535 0.031972 0.0314311 0.0025951 0.0424821 0.0324069 0.00300824 
0.0503832 0.0332999 0.00259376 0.0631726 0.0330258 0.00297781 0.08073 0.0322323 0.00298304 
0.105666 0.0331348 0.00264689 0.112328 0.0310201 0.00254835 0.121846 0.0319523 0.00273116 
0.130415 0.0322373 0.00276575 0.0198121 0.0349862 0.00267004 0.0246223 0.0359261 0.00296352 
0.0290905 0.035799 0.00270939 0.0381326 0.034441 0.00248759 0.0580697 0.0354725 0.00304757 
0.0730866 0.0349621 0.00252538 0.0775964 0.0357584 0.00265794 0.0883925 0.0343952 0.00255011 
0.0931267 0.0345644 0.00290028 0.100645 0.0342307 0.00286967 0.111235 0.0358783 0.00277319 
0.116404 0.0333306 0.00263354 0.125655 0.0351182 0.00268208 0.0336304 0.0362432 0.00301687 
0.0452191 0.0360275 0.00266738 0.0534501 0.0364612 0.00257631 0.0670244 0.0361786 0.00269232 
0.106568 0.0377284 0.00285906 0.116517 0.0382818 0.00257454 0.120761 0.0364606 0.00260694 
0.129944 0.0371268 0.00276957 0.0169752 0.0390284 0.00257945 0.030329 0.0406089 0.00291903 
0.0480636 0.0395984 0.00254404 0.0522202 0.0411007 0.00272168 0.0630179 0.0401573 0.00276656 
0.0812237 0.0391985 0.00271975 0.0877501 0.0390561 0.00296432 0.0952976 0.0397199 0.00290894 
0.112429 0.0402512 0.00254402 0.0248553 0.0412964 0.00262122 0.0364555 0.0426742 0.00261095 
0.0431535 0.0431907 0.00287295 0.056835 0.0419458 0.00291291 0.0674127 0.0427181 0.0029201 
0.0757361 0.0417449 0.00251988 0.0859856 0.0433865 0.00253811 0.101491 0.0415043 0.00250764 
0.107169 0.0420637 0.00300997 0.122224 0.0409484 0.00258815 0.12704 0.0416312 0.00264723 
0.0176175 0.044009 0.00284408 0.0268236 0.0454858 0.0026516 0.0627325 0.0455693 0.00248585 
0.0720828 0.0443872 0.00264577 0.081225 0.04561 0.00265502 0.0968683 0.0443997 0.00264311 
0.111333 0.0444888 0.00292042 0.12363 0.0455494 0.00299708 0.0320026 0.0468377 0.00280888 
0.0370035 0.0474033 0.00297048 0.0475696 0.0468302 0.00254171 0.0526416 0.0458957 0.00298311 
0.0582888 0.0470543 0.00277816 0.0877877 0.047608 0.00299514 0.0925336 0.045877 0.00269643 
0.104552 0.0458952 0.00270248 0.116197 0.0463817 0.00273761 0.0221818 0.0491233 0.00291759 
0.0284031 0.0497903 0.00291054 0.0415081 0.0483775 0.00251073 0.0547003 0.0502175 0.00269033 
0.0655649 0.0495235 0.00270664 0.069811 0.0485207 0.00253043 0.0757892 0.0499842 0.00263224 
0.0979954 0.0499342 0.00295156 0.105786 0.0504225 0.00294203 0.129546 0.0491797 0.00289597 
0.0348272 0.0516253 0.00287171 0.0395446 0.0528575 0.00259886 0.0442097 0.0532079 0.00299909 
0.0490423 0.0526944 0.00265262 0.0713629 0.0527761 0.00283511 0.081437 0.0516839 0.00286502 
0.0893206 0.0520404 0.00257696 0.115099 0.0511407 0.00279975 0.119644 0.05287 0.00279911 
0.0158826 0.0543922 0.00270611 0.0273158 0.0542696 0.00297184 0.0530838 0.0553542 0.00252189 
0.0575851 0.054868 0.00263764 0.063957 0.0552249 0.00267835 0.0757062 0.0547098 0.00249376 
0.0961297 0.0542234 0.00275624 0.101537 0.0547563 0.00281954 0.106274 0.0548776 0.00284824 
0.111115 0.053613 0.00281431 0.125377 0.0548933 0.00275027 0.0337649 0.0560329 0.00280175 
0.039624 0.0571587 0.0026693 0.0442389 0.0580218 0.0029418 0.115361 0.0566922 0.00275264 
0.0178306 0.0589003 0.00270469 0.0225488 0.059549 0.00249874 0.0282511 0.059323 0.00264036 
0.0580233 0.0595623 0.00299713 0.0681881 0.0603904 0.00302511 0.0763971 0.0592294 0.00269842 
0.0814724 0.0586027 0.00293165 0.0869765 0.0582225 0.00290316 0.0925689 0.0586178 0.00256974 
0.0984568 0.0583907 0.00278357 0.104744 0.0604873 0.00266083 0.120088 0.0596275 0.00249677 
0.128673 0.0585825 0.00286246 0.0328415 0.0624163 0.00255769 0.0371519 0.0611029 0.00253605 
0.0628499 0.0630836 0.00299873 0.0728679 0.0630185 0.00248252 0.08878 0.0626753 0.00268278 
0.111153 0.0616887 0.00296743 0.125716 0.0625053 0.0027029 0.0280568 0.0643323 0.00287548 
0.0402457 0.0648659 0.00281571 0.0521093 0.0644705 0.00252202 0.0682953 0.0651346 0.00278087 
0.0849059 0.0653467 0.0029787 0.0937825 0.0645154 0.00285099 0.100816 0.065281 0.00272891 
0.117244 0.0634071 0.00285425 0.01752 0.0656579 0.00260097 0.0334 0.0674562 0.00296036 
0.0442933 0.0668509 0.00269709 0.0580321 0.065771 0.00281268 0.0765487 0.0669176 0.00250001 
0.0890583 0.0677127 0.00273647 0.105002 0.0672611 0.00257837 0.109281 0.0659908 0.00291446 
0.113618 0.0681708 0.0028417 0.121293 0.0664758 0.00249453 0.129625 0.0663987 0.00270709 
0.0493479 0.0684928 0.00259322 0.0539249 0.0699598 0.00279132 0.0648462 0.0682511 0.00268813 
0.070167 0.0695554 0.00254569 0.0851752 0.0704313 0.00264458 0.0177758 0.0713439 0.00290039 
0.0237563 0.0716612 0.00275345 0.0320584 0.0720293 0.00256991 0.0396003 0.071722 0.00276649 
0.047113 0.0724295 0.00295405 0.0595839 0.071884 0.00275189 0.0789133 0.0710571 0.00256297 
0.0903194 0.0725991 0.00250782 0.0971151 0.0706872 0.00293564 0.10673 0.0717683 0.00269971 
0.111256 0.0724654 0.0028593 0.125273 0.0704438 0.00273653 0.0283336 0.0751113 0.00269946 
0.0360646 0.0748206 0.0028237 0.0558553 0.0746009 0.00289911 0.066427 0.0732129 0.00258945 
0.0737563 0.0737702 0.00265607 0.0850511 0.0750546 0.00261459 0.10064 0.0740956 0.00287629 
0.115949 0.073657 0.00265424 0.122204 0.0742608 0.00254129 0.0185302 0.0760591 0.00299406 
0.042109 0.0758693 0.00281401 0.0465662 0.0771461 0.00281228 0.0620371 0.0772413 0.00273765 
0.0800776 0.0759862 0.00280999 0.0963211 0.0769958 0.00271966 0.105242 0.0762496 0.0027965 
0.127157 0.0770435 0.00275786 0.0201892 0.0799207 0.00262221 0.0343307 0.0799284 0.00280612 
0.0531145 0.0789176 0.00294939 0.0579101 0.0793119 0.00255917 0.0700234 0.0787371 0.00255112 
0.0749379 0.0792884 0.00292548 0.0871895 0.0802981 0.00259704 0.0924168 0.0797782 0.00289054 
0.100707 0.0788568 0.00263742 0.115148 0.0790805 0.00284281 0.0247205 0.0811456 0.00281373 
0.0411806 0.0807964 0.00285076 0.0658896 0.0806176 0.00262532 0.0795805 0.0828691 0.00251138 
0.10416 0.0828846 0.00298992 0.109289 0.0821222 0.00254386 0.129422 0.0819509 0.0026873 
0.0194419 0.0843411 0.00277207 0.0284565 0.0840885 0.00258737 0.036751 0.0842179 0.0027168 
0.0563988 0.0834334 0.00301185 0.0706581 0.0840205 0.00255998 0.0754763 0.0847963 0.00279135 
0.0849408 0.0845225 0.00260193 0.0903833 0.0842181 0.00277159 0.0981008 0.0838932 0.00285024 
0.11395 0.0838484 0.00288962 0.118518 0.0832668 0.00283277 0.123345 0.0835407 0.00250905 
0.0452864 0.0855368 0.00284764 0.0504979 0.0854941 0.00273455 0.0642621 0.0861363 0.0027676 
0.128046 0.0866529 0.00274122 0.0176012 0.0887343 0.00287815 0.0231365 0.0892399 0.00255293 
0.0297252 0.0901431 0.00276503 0.0405109 0.0880906 0.00297466 0.0477909 0.0900094 0.002985 
0.0533701 0.0894696 0.00272786 0.05777 0.0879595 0.00284617 0.0722829 0.0891484 0.00271556 
0.0865813 0.0891548 0.00256608 0.0961518 0.0895151 0.00273411 0.104111 0.0886758 0.00272134 
0.112801 0.0882913 0.00263517 0.118183 0.0880679 0.00277296 0.123622 0.0886692 0.00262706 
0.0348677 0.0903973 0.0029846 0.0615362 0.0907219 0.00289741 0.0901047 0.092382 0.00262558 
0.100662 0.0922374 0.00275128 0.110129 0.0927038 0.00279915 0.0157805 0.0928155 0.00267494 
0.0540553 0.0943336 0.00291396 0.0613832 0.0952166 0.00298189 0.0688266 0.0929719 0.00285539 
0.0802967 0.092979 0.0028754 0.0950521 0.0941373 0.00253478 0.116492 0.0948602 0.002642 
0.120964 0.0945377 0.002591 0.129746 0.0941489 0.0028574 0.0171431 0.0971643 0.0026087 
0.0242095 0.0963282 0.00270525 0.0288506 0.0977203 0.00256295 0.0468698 0.0953366 0.00296856 
0.0733197 0.0966183 0.00299088 0.0781315 0.0976489 0.00289612 0.0848538 0.0952783 0.00259991 
0.0991161 0.0964833 0.00284811 0.104328 0.0954038 0.00282288 0.125433 0.0961818 0.00307275 
0.0391317 0.0977587 0.00273062 0.0438779 0.0986971 0.00246053 0.0616543 0.0994922 0.00263097 
0.0687463 0.0985426 0.00262683 0.0951035 0.0991824 0.00265726 0.11161 0.0984526 0.00252902 
0.117115 0.0997299 0.00301987 0.0165919 0.101898 0.00286271 0.0357329 0.102401 0.00298308 
0.0530527 0.100273 0.00289709 0.057503 0.101671 0.00264227 0.0730659 0.101295 0.00269174 
0.0813346 0.101918 0.00274044 0.0858832 0.100423 0.00280434 0.0905932 0.100636 0.00256775 
0.101124 0.100757 0.00276982 0.105331 0.102432 0.00267852 0.127688 0.100458 0.00271379 
0.022051 0.103221 0.00260534 0.0291969 0.103617 0.00284697 0.0436513 0.10349 0.00289461 
0.0500966 0.103706 0.00291557 0.064223 0.103362 0.00279533 0.0687662 0.103174 0.00290595 
0.0758315 0.105161 0.00275531 0.116029 0.10406 0.00298531 0.0393977 0.105425 0.00262729 
0.0546273 0.106107 0.00288724 0.061726 0.107252 0.0027821 0.0829274 0.107024 0.00296488 
0.0897007 0.106452 0.00253426 0.0982389 0.105791 0.00261217 0.103995 0.106988 0.00252778 
0.112083 0.106743 0.00255325 0.121049 0.107116 0.00289554 0.125988 0.106365 0.00299175 
0.0177554 0.10945 0.00250573 0.0244923 0.109583 0.00280156 0.0425324 0.109159 0.0025076 
0.0477348 0.107638 0.00300292 0.0687726 0.108241 0.00289554 0.130149 0.109228 0.00276315 
0.0330032 0.110208 0.00252163 0.0377355 0.110097 0.00281044 0.0463467 0.111956 0.00273347 
0.0654739 0.111551 0.00250928 0.07251 0.111559 0.00260351 0.0838261 0.111756 0.00265958 
0.0909919 0.111863 0.00260423 0.0964067 0.110401 0.00292396 0.107641 0.110855 0.00253838 
0.112977 0.111305 0.00281451 0.117681 0.110737 0.00287063 0.0237375 0.114424 0.00267397 
0.030209 0.114721 0.00251606 0.0574702 0.113017 0.00292184 0.101072 0.114614 0.00256386 
0.124767 0.113012 0.00252393 0.0162321 0.115545 0.00250066 0.0355465 0.116793 0.00276916 
0.0412179 0.117021 0.00274245 0.0461715 0.11657 0.00268758 0.0607613 0.11613 0.00273319 
0.0789879 0.116352 0.00283578 0.0880834 0.117043 0.00280543 0.108045 0.115568 0.0029969 
0.118595 0.115665 0.00263437 0.0279254 0.118859 0.0027157 0.0683484 0.117908 0.00290436 
0.0745868 0.11895 0.00259834 0.0834616 0.117798 0.00301772 0.0936529 0.117799 0.00267467 
0.112973 0.118736 0.00265707 0.127194 0.117753 0.00263652 0.0202391 0.120546 0.00255134 
0.0347181 0.121559 0.00268904 0.0542472 0.120201 0.00256926 0.0620322 0.120847 0.0026521 
0.0821582 0.122409 0.00260739 0.0917461 0.121832 0.0028022 0.102978 0.120871 0.00265867 
0.108349 0.120295 0.00266245 0.11952 0.1214 0.0027514 0.0262765 0.124121 0.00298462 
0.0415515 0.123841 0.00250564 0.0497891 0.122592 0.00288542 0.0662256 0.124194 0.00283405 
0.0709713 0.123647 0.00289204 0.0755513 0.123643 0.00258504 0.0871306 0.123562 0.00253356 
0.0371673 0.125546 0.00252639 0.0459661 0.126994 0.0025763 0.0571258 0.126551 0.00250934 
0.0793649 0.126446 0.00254058 0.0911188 0.126566 0.00252717 0.0965895 0.125321 0.00287209 
0.101287 0.125463 0.00245884 0.108562 0.12721 0.00272813 0.0159819 0.128319 0.00283901 
0.0206881 0.129436 0.00248223 0.0293219 0.127675 0.00278943 0.033926 0.128489 0.00247727 
0.0401113 0.129312 0.00272945 0.0525193 0.127768 0.00263172 0.0620637 0.128539 0.00258809 
0.0760288 0.129856 0.00250832 0.0823034 0.129697 0.00268978 0.0870912 0.128657 0.00272531 
0.113187 0.128535 0.00293095 0.118032 0.129054 0.00276855 0.122864 0.128038 0.00288149 
0.101802 0.130494 0.00300201 
VERTICES 415 830
1 0 
1 1 
1 2 
1 3 
1 4 
1 5 
1 6 
1 7 
1 8 
1 9 
1 10 
1 11 
1 12 
1 13 
1 14 
1 15 
1 16 
1 17 
1 18 
1 19 
1 20 
1 21 
1 22 
1 23 
1 24 
1 25 
1 26 
1 27 
1 28 
1 29 
1 30 
1 31 
1 32 
1 33 
1 34 
1 35 
1 36 
1 37 
1 38 
1 39 
1 40 
1 41 
1 42 
1 43 
1 44 
1 45 
1 46 
1 47 
1 48 
1 49 
1 50 
1 51 
1 52 
1 53 
1 54 
1 55 
1 56 
1 57 
1 58 
1 59 
1 60 
1 61 
1 62 
1 63 
1 64 
1 65 
1 66 
1 67 
1 68 
1 69 
1 70 
1 71 
1 72 
1 73 
1 74 
1 75 
1 76 
1 77 
1 78 
1 79 
1 80 
1 81 
1 82 
1 83 
1 84 
1 85 
1 86 
1 87 
1 88 
1 89 
1 90 
1 91 
1 92 
1 93 
1 94 
1 95 
1 96 
1 97 
1 98 
1 99 
1 100 
1 101 
1 102 
1 103 
1 104 
1 105 
1 106 
1 107 
1 108 
1 109 
1 110 
1 111 
1 112 
1 113 
1 114 
1 115 
1 116 
1 117 
1 118 
1 119 
1 120 
1 121 
1 122 
1 123 
1 124 
1 125 
1 126 
1 127 
1 128 
1 129 
1 130 
1 131 
1 132 
1 133 
1 134 
1 135 
1 136 
1 137 
1 138 
1 139 
1 140 
1 141 
1 142 
1 143 
1 144 
1 145 
1 146 
1 147 
1 148 
1 149 
1 150 
1 151 
1 152 
1 153 
1 154 
1 155 
1 156 
1 157 
1 158 
1 159 
1 160 
1 161 
1 162 
1 163 
1 164 
1 165 
1 166 
1 167 
1 168 
1 169 
1 170 
1 171 
1 172 
1 173 
1 174 
1 175 
1 176 
1 177 
1 178 
1 179 
1 180 
1 181 
1 182 
1 183 
1 184 
1 185 
1 186 
1 187 
1 188 
1 189 
1 190 
1 191 
1 192 
1 193 
1 194 
1 195 
1 196 
1 197 
1 198 
1 199 
1 200 
1 201 
1 202 
1 203 
1 204 
1 205 
1 206 
1 207 
1 208 
1 209 
1 210 
1 211 
1 212 
1 213 
1 214 
1 215 
1 216 
1 217 
1 218 
1 219 
1 220 
1 221 
1 222 
1 223 
1 224 
1 225 
1 226 
1 227 
1 228 
1 229 
1 230 
1 231 
1 232 
1 233 
1 234 
1 235 
1 236 
1 237 
1 238 
1 239 
1 240 
1 241 
1 242 
1 243 
1 244 
1 245 
1 246 
1 247 
1 248 
1 249 
1 250 
1 251 
1 252 
1 253 
1 254 
1 255 
1 256 
1 257 
1 258 
1 259 
1 260 
1 261 
1 262 
1 263 
1 264 
1 265 
1 266 
1 267 
1 268 
1 269 
1 270 
1 271 
1 272 
1 273 
1 274 
1 275 
1 276 
1 277 
1 278 
1 279 
1 280 
1 281 
1 282 
1 283 
1 284 
1 285 
1 286 
1 287 
1 288 
1 289 
1 290 
1 291 
1 292 
1 293 
1 294 
1 295 
1 296 
1 297 
1 298 
1 299 
1 300 
1 301 
1 302 
1 303 
1 304 
1 305 
1 306 
1 307 
1 308 
1 309 
1 310 
1 311 
1 312 
1 313 
1 314 
1 315 
1 316 
1 317 
1 318 
1 319 
1 320 
1 321 
1 322 
1 323 
1 324 
1 325 
1 326 
1 327 
1 328 
1 329 
1 330 
1 331 
1 332 
1 333 
1 334 
1 335 
1 336 
1 337 
1 338 
1 339 
1 340 
1 341 
1 342 
1 343 
1 344 
1 345 
1 346 
1 347 
1 348 
1 349 
1 350 
1 351 
1 352 
1 353 
1 354 
1 355 
1 356 
1 357 
1 358 
1 359 
1 360 
1 361 
1 362 
1 363 
1 364 
1 365 
1 366 
1 367 
1 368 
1 369 
1 370 
1 371 
1 372 
1 373 
1 374 
1 375 
1 376 
1 377 
1 378 
1 379 
1 380 
1 381 
1 382 
1 383 
1 384 
1 385 
1 386 
1 387 
1 388 
1 389 
1 390 
1 391 
1 392 
1 393 
1 394 
1 395 
1 396 
1 397 
1 398 
1 399 
1 400 
1 401 
1 402 
1 403 
1 404 
1 405 
1 406 
1 407 
1 408 
1 409 
1 410 
1 411 
1 412 
1 413 
1 414 

POINT_DATA 415
FIELD FieldData 7
id 1 415 int
35 306 309 396 335 244 197 92 26 
327 267 139 98 247 412 334 47 165 
68 171 373 283 29 36 401 331 253 
395 225 31 198 30 252 211 312 49 
385 124 24 310 273 186 19 32 305 
187 329 162 141 156 103 391 120 276 
166 257 66 339 7 351 223 301 215 
261 264 234 376 130 144 115 256 326 
268 206 362 109 259 58 239 63 387 
70 9 71 369 400 367 354 121 111 
403 258 134 94 363 240 102 399 243 
51 72 21 17 311 25 384 75 338 
250 353 217 382 116 358 176 195 356 
342 95 392 64 113 213 85 201 54 
93 6 325 349 96 11 53 152 294 
212 38 229 202 322 8 224 136 271 
12 199 343 88 50 410 308 154 315 
288 77 37 182 413 286 307 117 180 
227 245 161 365 316 238 18 4 355 
279 289 411 191 314 142 324 297 269 
5 137 303 149 260 378 87 173 277 
131 125 108 405 128 296 372 228 145 
207 254 393 110 226 360 101 320 390 
27 194 290 40 169 236 366 23 46 
404 79 415 89 408 352 205 350 332 
99 16 270 3 248 204 107 55 45 
221 143 20 344 100 185 15 129 184 
242 61 73 317 379 181 106 284 41 
383 263 157 210 287 33 175 91 280 
246 39 56 347 97 209 132 274 298 
126 251 28 386 178 158 10 188 345 
65 388 190 293 122 262 200 291 172 
78 22 237 86 163 394 135 337 377 
370 255 368 321 340 397 285 57 406 
281 313 123 170 304 218 34 230 409 
69 112 168 282 381 231 275 167 1 
292 133 147 14 295 150 104 333 62 
323 328 60 336 203 208 183 302 371 
330 374 189 42 138 164 84 214 265 
90 44 233 220 357 361 278 153 48 
299 216 319 81 407 151 318 159 177 
266 2 193 414 402 114 380 160 83 
249 140 148 52 13 179 272 235 67 
118 222 174 127 300 398 241 43 59 
348 119 146 74 105 375 82 389 232 
364 346 196 80 192 359 76 341 219 
155 
type 1 415 int
1 1 1 1 1 1 1 1 1 
1 1 1 1 1 1 1 1 1 
1 1 1 1 1 1 1 1 1 
1 1 1 1 1 1 1 1 1 
1 1 1 1 1 1 1 1 1 
1 1 1 1 1 1 1 1 1 
1 1 1 1 1 1 1 1 1 
1 1 1 1 1 1 1 1 1 
1 1 1 1 1 1 1 1 1 
1 1 1 1 1 1 1 1 1 
1 1 1 1 1 1 1 1 1 
1 1 1 1 1 1 1 1 1 
1 1 1 1 1 1 1 1 1 
1 1 1 1 1 1 1 1 1 
1 1 1 1 1 1 1 1 1 
1 1 1 1 1 1 1 1 1 
1 1 1 1 1 1 1 1 1 
1 1 1 1 1 1 1 1 1 
1 1 1 1 1 1 1 1 1 
1 1 1 1 1 1 1 1 1 
1 1 1 1 1 1 1 1 1 
1 1 1 1 1 1 1 1 1 
1 1 1 1 1 1 1 1 1 
1 1 1 1 1 1 1 1 1 
1 1 1 1 1 1 1 1 1 
1 1 1 1 1 1 1 1 1 
1 1 1 1 1 1 1 1 1 
1 1 1 1 1 1 1 1 1 
1 1 1 1 1 1 1 1 1 
1 1 1 1 1 1 1 1 1 
1 1 1 1 1 1 1 1 1 
1 1 1 1 1 1 1 1 1 
1 1 1 1 1 1 1 1 1 
1 1 1 1 1 1 1 1 1 
1 1 1 1 1 1 1 1 1 
1 1 1 1 1 1 1 1 1 
1 1 1 1 1 1 1 1 1 
1 1 1 1 1 1 1 1 1 
1 1 1 1 1 1 1 1 1 
1 1 1 1 1 1 1 1 1 
1 1 1 1 1 1 1 1 1 
1 1 1 1 1 1 1 1 1 
1 1 1 1 1 1 1 1 1 
1 1 1 1 1 1 1 1 1 
1 1 1 1 1 1 1 1 1 
1 1 1 1 1 1 1 1 1 
1 
i 3 415 int
0 0 0 0 0 0 0 0 0 
0 0 0 0 0 0 0 0 0 
0 0 0 0 0 0 0 0 0 
0 0 0 0 0 0 0 0 0 
0 0 0 0 0 0 0 0 0 
0 0 0 0 0 0 0 0 0 
0 0 0 0 0 0 0 0 0 
0 0 0 0 0 0 0 0 0 
0 0 0 0 0 0 0 0 0 
0 0 0 0 0 0 0 0 0 
0 0 0 0 0 0 0 0 0 
0 0 0 0 0 0 0 0 0 
0 0 0 0 0 0 0 0 0 
0 0 0 0 0 0 0 0 0 
0 0 0 0 0 0 0 0 0 
0 0 0 0 0 0 0 0 0 
0 0 0 0 0 0 0 0 0 
0 0 0 0 0 0 0 0 0 
0 0 0 0 0 0 0 0 0 
0 0 0 0 0 0 0 0 0 
0 0 0 0 0 0 0 0 0 
0 0 0 0 0 0 0 0 0 
0 0 0 0 0 0 0 0 0 
0 0 0 0 0 0 0 0 0 
0 0 0 0 0 0 0 0 0 
0 0 0 0 0 0 0 0 0 
0 0 0 0 0 0 0 0 0 
0 0 0 0 0 0 0 0 0 
0 0 0 0 0 0 0 0 0 
0 0 0 0 0 0 0 0 0 
0 0 0 0 0 0 0 0 0 
0 0 0 0 0 0 0 0 0 
0 0 0 0 0 0 0 0 0 
0 0 0 0 0 0 0 0 0 
0 0 0 0 0 0 0 0 0 
0 0 0 0 0 0 0 0 0 
0 0 0 0 0 0 0 0 0 
0 0 0 0 0 0 0 0 0 
0 0 0 0 0 0 0 0 0 
0 0 0 0 0 0 0 0 0 
0 0 0 0 0 0 0 0 0 
0 0 0 0 0 0 0 0 0 
0 0 0 0 0 0 0 0 0 
0 0 0 0 0 0 0 0 0 
0 0 0 0 0 0 0 0 0 
0 0 0 0 0 0 0 0 0 
0 0 0 0 0 0 0 0 0 
0 0 0 0 0 0 0 0 0 
0 0 0 0 0 0 0 0 0 
0 0 0 0 0 0 0 0 0 
0 0 0 0 0 0 0 0 0 
0 0 0 0 0 0 0 0 0 
0 0 0 0 0 0 0 0 0 
0 0 0 0 0 0 0 0 0 
0 0 0 0 0 0 0 0 0 
0 0 0 0 0 0 0 0 0 
0 0 0 0 0 0 0 0 0 
0 0 0 0 0 0 0 0 0 
0 0 0 0 0 0 0 0 0 
0 0 0 0 0 0 0 0 0 
0 0 0 0 0 0 0 0 0 
0 0 0 0 0 0 0 0 0 
0 0 0 0 0 0 0 0 0 
0 0 0 0 0 0 0 0 0 
0 0 0 0 0 0 0 0 0 
0 0 0 0 0 0 0 0 0 
0 0 0 0 0 0 0 0 0 
0 0 0 0 0 0 0 0 0 
0 0 0 0 0 0 0 0 0 
0 0 0 0 0 0 0 0 0 
0 0 0 0 0 0 0 0 0 
0 0 0 0 0 0 0 0 0 
0 0 0 0 0 0 0 0 0 
0 0 0 0 0 0 0 0 0 
0 0 0 0 0 0 0 0 0 
0 0 0 0 0 0 0 0 0 
0 0 0 0 0 0 0 0 0 
0 0 0 0 0 0 0 0 0 
0 0 0 0 0 0 0 0 0 
0 0 0 0 0 0 0 0 0 
0 0 0 0 0 0 0 0 0 
0 0 0 0 0 0 0 0 0 
0 0 0 0 0 0 0 0 0 
0 0 0 0 0 0 0 0 0 
0 0 0 0 0 0 0 0 0 
0 0 0 0 0 0 0 0 0 
0 0 0 0 0 0 0 0 0 
0 0 0 0 0 0 0 0 0 
0 0 0 0 0 0 0 0 0 
0 0 0 0 0 0 0 0 0 
0 0 0 0 0 0 0 0 0 
0 0 0 0 0 0 0 0 0 
0 0 0 0 0 0 0 0 0 
0 0 0 0 0 0 0 0 0 
0 0 0 0 0 0 0 0 0 
0 0 0 0 0 0 0 0 0 
0 0 0 0 0 0 0 0 0 
0 0 0 0 0 0 0 0 0 
0 0 0 0 0 0 0 0 0 
0 0 0 0 0 0 0 0 0 
0 0 0 0 0 0 0 0 0 
0 0 0 0 0 0 0 0 0 
0 0 0 0 0 0 0 0 0 
0 0 0 0 0 0 0 0 0 
0 0 0 0 0 0 0 0 0 
0 0 0 0 0 0 0 0 0 
0 0 0 0 0 0 0 0 0 
0 0 0 0 0 0 0 0 0 
0 0 0 0 0 0 0 0 0 
0 0 0 0 0 0 0 0 0 
0 0 0 0 0 0 0 0 0 
0 0 0 0 0 0 0 0 0 
0 0 0 0 0 0 0 0 0 
0 0 0 0 0 0 0 0 0 
0 0 0 0 0 0 0 0 0 
0 0 0 0 0 0 0 0 0 
0 0 0 0 0 0 0 0 0 
0 0 0 0 0 0 0 0 0 
0 0 0 0 0 0 0 0 0 
0 0 0 0 0 0 0 0 0 
0 0 0 0 0 0 0 0 0 
0 0 0 0 0 0 0 0 0 
0 0 0 0 0 0 0 0 0 
0 0 0 0 0 0 0 0 0 
0 0 0 0 0 0 0 0 0 
0 0 0 0 0 0 0 0 0 
0 0 0 0 0 0 0 0 0 
0 0 0 0 0 0 0 0 0 
0 0 0 0 0 0 0 0 0 
0 0 0 0 0 0 0 0 0 
0 0 0 0 0 0 0 0 0 
0 0 0 0 0 0 0 0 0 
0 0 0 0 0 0 0 0 0 
0 0 0 0 0 0 0 0 0 
0 0 0 0 0 0 0 0 0 
0 0 0 0 0 0 0 0 0 
0 0 0 0 0 0 0 0 0 
0 0 0 0 0 0 0 0 0 
0 0 0 
v 3 415 double
-0.0626417 -0.0211622 -0.00510938 -0.011777 -0.28432 0.0123752 0.0101734 -0.00485032 -0.000804249 
0.136145 -0.12151 0.000812473 0.015991 -0.193795 -0.00350874 0.200678 -0.0299419 0.0123435 
0 0 0 0 0 0 0 0 0 
0 0 0 -0.199599 -0.0361981 -0.0170248 0.174511 -0.109796 -0.00107065 
-0.0101734 0.00485032 0.000804249 0 0 0 0.0850102 -0.100329 -0.0040436 
-0.251968 -0.0830526 -0.00912981 -0.269356 0.0934928 -0.0118864 -0.04236 -0.0635416 6.83425e-05 
0.031781 -0.0110345 0.00287391 0.0250884 0.145994 0.0180954 -0.0421224 -0.0632046 0.0201758 
-0.0850102 0.100329 0.0040436 0 0 0 0.0497029 -0.0217541 0.00102607 
0.0754932 0.0700478 0.00718016 -0.0512578 -0.0630467 -0.00681001 0 0 0 
-0.13919 0.0442808 -0.00443478 0 0 0 -0.151121 -0.0562727 -0.00369179 
0.189448 0.0451803 -0.0171131 -0.122399 0.0462639 0.0133985 -0.0442756 0.035996 -0.00326633 
0.072202 0.0841132 0.00575543 0.0401983 -0.110525 -0.00584978 -0.0506234 0.0266409 0.00606839 
0.181828 0.272236 -0.00570495 -0.0768957 -0.00622723 0.00330416 0.0768957 0.00622723 -0.00330416 
0.188934 0.157088 -0.00584228 0.101517 -0.0419509 -0.0079973 0 0 0 
-0.00283437 -0.00313744 0.000142777 -0.0538847 0.0742356 0.0044573 0.0515528 -0.0066832 -0.00392986 
0.00171587 -0.00706284 0.000275632 -0.00149959 -0.0284681 -0.000519436 -0.00136619 -0.0100526 0.000823737 
-0.0401895 0.11052 0.00585026 -0.0844408 -0.00868153 0.00311777 0.0976935 -0.158879 0.00136849 
0.0442576 -0.165132 -0.0125511 0 0 0 0.0827637 -0.16036 0.00765311 
0.00283437 0.00313744 -0.000142777 0.0408334 -0.109333 -0.00607978 -0.154778 -0.0765199 -0.00908774 
0.100453 -0.164515 -0.000825551 -8.8082e-06 5.60314e-06 -4.78928e-07 -0.0884755 -0.129324 0.0113691 
-0.122594 0.0395109 -0.005977 -9.12191e-05 -7.4667e-05 6.75432e-06 0.0282284 -0.0493535 0.00356342 
-0.0277792 -0.137949 -0.00672603 -0.0354766 -0.228257 -0.00725797 0.0606295 -0.139654 0.00487365 
0.154461 0.0954788 0.00878928 -0.200901 -0.00453546 -0.0111804 0.0166126 0.166096 0.0139764 
-0.159171 -0.139976 -0.0166771 0.194166 -0.0697777 -0.0196466 0.229324 0.0904296 0.0343769 
-0.20759 0.10129 -0.0103114 -0.0394099 -0.0189066 -0.0030023 -0.048705 -0.0467811 -0.0075328 
0.0565581 0.00140952 0.0040379 -0.0372171 0.11377 0.00616094 -0.0983195 -0.0136571 0.0136571 
0.065511 -0.16398 0.00251025 -0.105188 -0.0491846 -0.00209098 0.0141033 0.0483563 0.0265805 
-0.04487 -0.0368358 -0.00568938 -0.064214 0.0279282 -0.0206543 9.12191e-05 7.4667e-05 -6.75432e-06 
0.0227476 0.000934228 0.00340187 0.0300946 0.117821 -0.00237039 0.162549 0.0801829 -0.00291073 
0.106015 0.0536832 0.00212265 -0.00108454 0.00106577 -4.20811e-05 0.0294611 0.179425 0.00656641 
-0.102905 0.122875 -0.0125565 -0.0472392 0.198114 0.000683038 0 0 0 
0.136008 0.12733 0.00209718 0.026366 -0.0413307 0.0114608 -0.000476041 -0.00193715 0.000103717 
-0.142223 0.206514 -0.0184862 -0.0424424 -0.0915311 -0.000940717 -0.0184891 -0.293214 -0.0149373 
0 0 0 0.182472 0.0871896 0.00858326 -0.000502023 -0.000230284 3.35821e-05 
0.143574 -0.11797 -0.00377632 -0.0729296 0.0253536 -0.0128049 0 0 0 
0.108814 -0.121205 0.0163499 -0.170901 -0.120696 -0.0117393 0.158685 0.0106699 0.000861632 
0 0 0 -0.00781867 -0.0442754 -0.00641874 0.165942 -0.258607 -0.0207436 
-0.0196704 -0.0789606 0.00746644 0 0 0 0.0737946 -0.0234737 -0.00144118 
-0.030319 0.155188 0.0102269 0.0222082 0.128452 0.0109116 0.106803 -0.0883023 -0.00257513 
-0.0259199 -0.0633526 0.0279852 0 0 0 -0.0976525 -0.0752304 0.00764434 
-0.0972332 -0.102122 0.014381 -0.139375 -0.0182029 0.0236846 0.0938272 -0.0413464 -0.00760968 
-0.165063 -0.0140324 -0.0212038 0.0414766 -0.177277 -0.002181 0 0 0 
-0.0140955 0.0510654 0.00725096 0.230583 -0.117938 -0.0148264 -0.19592 0.275386 -0.00727047 
-0.0213264 0.202862 0.0118865 0.0847884 0.0478154 -0.0154901 0.0025147 -0.159459 0.00417626 
0.0196017 -0.0598215 0.00234673 0.0130592 0.0153295 0.0108091 0 0 0 
-0.112697 0.215187 0.0010851 -0.0693105 0.014092 -0.00202236 -0.25372 -0.0321818 0.0190092 
0.00472363 -0.128108 -0.00660109 0.00980896 0.103614 0.00804717 0 0 0 
0.0109396 0.146309 -0.00989841 -0.013939 0.143353 0.00194966 0.00896287 0.00548226 2.34049e-05 
-0.0018813 -0.00324997 2.20761e-05 -0.0424462 0.173043 0.00268362 0.209412 0.133496 -0.0121528 
0.0699598 -0.0772019 -0.00471617 0 0 0 -0.0109478 0.064964 -0.0109448 
-0.0953706 -0.0761663 -0.00313967 -0.0671566 -0.0129977 -0.000377388 0.128897 0.247544 -0.00188924 
-0.0365005 0.0284414 0.000207935 -0.001123 -0.00126356 -3.80497e-05 -0.0196762 0.0670635 -0.00110007 
0.0183764 -0.0647962 0.0021353 0.0509875 0.0294981 0.0036366 0 0 0 
-0.139326 -0.0161742 0.00588984 0.141207 0.0194242 -0.00591191 0.00712511 -0.183686 -0.00800029 
0.00887478 0.081188 0.00606858 -0.0610288 -0.270774 0.0162055 -0.140419 0.125954 -0.0024594 
0.177753 -0.0193132 0.00745689 -0.0603364 -0.157577 0.0071351 0 0 0 
0.0411829 0.163127 0.000418135 0 0 0 0.0549447 -0.13635 -0.00789603 
0.00392028 -0.00244946 0.000188146 -0.126311 0.0292693 -0.000863055 -0.0862366 0.0185903 -0.0123853 
0 0 0 0.15951 -0.0915703 -0.00988328 0.116756 0.100991 -0.0111961 
0.0533331 -0.191597 0.00341346 -0.00279728 0.00371301 -0.000150097 -0.00712511 0.183686 0.00800029 
0.00282306 0.120491 0.0115426 0.090025 -0.156621 -0.00322886 -0.110125 0.0444756 0.00464829 
-0.122157 0.0075845 0.0082809 0 0 0 -0.0620846 -0.0226738 0.00126494 
-0.194207 0.0217113 0.0189516 0 0 0 0.023624 -0.219961 0.0140219 
0.116619 0.0679181 -0.00185802 0 0 0 -0.0710844 -0.124444 -0.0018151 
0.174156 -0.0338447 -0.00148008 -0.164176 0.0631232 -0.0153096 -0.021566 0.0281862 0.0124441 
0.191735 0.101731 -0.00193123 0.139262 0.114639 -0.0110556 0 0 0 
-0.165845 0.0230663 -0.00810677 0.122373 0.0621708 0.00580397 -0.0403379 0.0318474 -0.000563266 
0.0519812 0.286021 -0.0104072 -0.0852966 0.00048745 -0.00269648 -0.0433742 -0.235182 -0.00179814 
0 0 0 -0.180688 0.0694037 -0.0217548 -0.0542055 -0.209082 -0.0019471 
-0.023267 0.000783906 0.00764784 0.050479 -0.0414305 -0.00183928 0.0710844 0.124444 0.0018151 
0 0 0 -0.152569 -0.191247 0.00434876 -0.049407 -0.0751295 -0.00334617 
-0.0969581 -0.0259483 0.00899794 0.113492 -0.141196 0.00681207 -0.00739604 0.00533918 6.41841e-05 
0.0793176 0.168886 0.00769908 0.0405816 -0.112215 0.000654571 0 0 0 
0 0 0 0.154995 0.047214 -0.00642711 0.118704 -0.0988411 0.00810827 
0.176372 0.0446176 -0.00713395 -0.113492 0.141196 -0.00681207 -0.0620227 -0.102596 0.0229193 
-0.0931499 0.0942514 0.00152307 0.209212 0.161763 -0.00172257 0.0734039 -0.0389881 0.00213215 
-0.178117 0.035145 0.00638373 0.0432225 -0.107698 -0.00494268 -0.0272483 0.0776904 0.00160047 
0 0 0 0.129265 -0.0495761 -0.0300669 -0.00170051 -0.00301391 6.24354e-05 
-0.186473 0.104188 0.00919598 0.0549477 -0.0926319 -0.0234172 -0.0730562 -0.0607575 -0.0134142 
0.189447 0.0186375 0.0130227 0.0072093 -0.018467 3.35561e-06 -0.153469 0.0989161 0.00633064 
0.146435 0.294614 -0.0137647 0.0277731 -0.178618 -0.00123111 0.00443565 -0.0218446 0.00254338 
0 0 0 -0.116391 0.04212 0.000391484 0.150743 -0.0557298 -0.00737417 
0 0 0 -9.60297e-05 -1.73486e-05 -5.36281e-06 0.0509834 -0.17413 -0.00188235 
0.0366884 0.108189 0.00219688 0.0345453 0.0270759 -0.00202473 0.00170051 0.00301391 -6.24354e-05 
-0.158377 -0.123633 0.0202154 -0.198473 -0.0268213 -0.00804607 0.0477304 0.0825511 0.0154202 
-0.0685196 -0.154882 0.0012546 -0.00232332 0.00425568 -8.02436e-05 0 0 0 
-0.205896 0.0982339 0.0079587 0.0129653 -0.143907 0.00902258 0.223359 -0.0144224 -0.0128516 
0 0 0 -0.107921 -0.147876 0.000209825 0 0 0 
-0.0443302 0.170073 0.00203159 -0.0765584 0.213061 0.00843234 0 0 0 
0 0 0 0 0 0 0 0 0 
0.0602391 0.156102 -0.00163497 -0.0757766 0.0291485 -0.00713453 0 0 0 
0.0483425 0.159748 -0.00144192 0.00970084 -0.0459063 0.00184121 0.000309147 -0.000426357 -5.32126e-06 
-0.0210937 0.0621102 -0.0028951 -0.0370118 0.176621 1.90315e-06 -0.00665319 0.00405677 -0.000149235 
0 0 0 0.207287 -0.0162379 -0.00279654 0.0129678 0.0136012 0.000183955 
-0.00596884 -0.324638 -0.0046488 0 0 0 -0.046979 -0.159407 -0.00202487 
0.000455948 0.00246148 8.04337e-05 0.0324583 0.137124 0.0128155 0 0 0 
0 0 0 -0.0603218 0.00804103 -0.00497181 -0.13748 -0.172817 -0.0130999 
-0.145502 -0.150146 -0.0199555 -0.0131231 -0.00666339 0.000911859 0.073504 -0.00558674 -0.0114771 
-0.164978 -0.049486 0.00480063 0.164978 0.049486 -0.00480063 0.063766 -0.0700377 0.00730542 
0.14853 -0.155453 0.0162838 0.0024539 0.000213015 -1.30761e-05 0 0 0 
0.015265 -0.00658871 0.0142191 0.11384 0.0700487 0.00177372 0.0785398 -0.0913797 0.03195 
-0.196234 -0.0782717 0.00718301 0.123334 -0.0789358 -0.0295486 0.0188684 -0.0918467 -0.0148372 
-0.163284 0.0204716 -0.0142753 -0.182129 0.0995605 -0.00637855 0 0 0 
0.0450821 0.0892676 0.0139514 -0.0181616 0.222901 0.0101182 -0.0153034 -0.0116398 0.0012228 
0.0641334 -0.138545 0.00126096 -0.102168 0.0579366 -0.00287198 -0.0482991 -0.0618087 -0.00674995 
-0.0229388 0.00698669 -0.000226753 -0.0659289 -0.0108974 0.00454493 0.0711225 0.0102155 -0.00466832 
-0.00270763 0.122972 0.00137612 0.138629 0.0243354 -0.00133245 0.167778 0.236651 -0.0119948 
0 0 0 0 0 0 0.136168 0.11366 0.0218424 
0.00521413 -0.0624571 -0.00200134 0.0245913 -0.00918612 0.00217362 0.14882 -0.0776292 0.00777363 