ITEM: TIMESTEP
1500
ITEM: NUMBER OF ENTRIES
166
ITEM: BOX BOUNDS pp pp pp
0.00825 0.137809
0.00825 0.137809
0 0.0055
ITEM: ENTRIES c_3[1] c_3[2] c_3[3] c_3[4] c_3[5] c_3[6] c_3[7] c_3[8] c_3[9] c_3[10] c_3[11] c_3[12] c_3[13] 
0.0694288 0.0111206 0.00297217 0.07025 0.0157361 0.00286102 306 68 0 -0.915522 -3.88585 0.0928304 0.000310673 
0.0843449 0.0115594 0.00286126 0.0805117 0.014511 0.00293906 139 171 0 1.75222 -1.12029 -0.0111958 0.000161412 
0.114253 0.0115524 0.00278471 0.111083 0.0152929 0.00292834 412 283 0 0.788824 -0.930966 -0.0357473 9.51134e-05 
0.130122 0.010743 0.0025837 0.126158 0.0134226 0.00253656 396 334 0 2.04392 -1.89431 0.010965 0.000214606 
0.0120999 0.0152836 0.0025504 0.0164115 0.013451 0.00272761 47 335 0 -3.76344 1.36425 -0.15961 0.000311683 
0.0164115 0.013451 0.00272761 0.0212063 0.0136417 0.00298171 335 244 0 -2.49668 -0.0294928 -0.132662 0.000194757 
0.0164115 0.013451 0.00272761 0.0183661 0.0179049 0.00292239 335 401 0 -0.395556 -1.67735 -0.0563976 0.000132135 
0.07025 0.0157361 0.00286102 0.0654873 0.0172036 0.00271322 68 395 0 0.17221 -0.0562794 0.005221 1.41148e-05 
0.07025 0.0157361 0.00286102 0.0730634 0.0194433 0.00278488 68 385 0 -2.48528 -3.67989 0.0773939 0.000345515 
0.0758754 0.0134688 0.00252367 0.0805117 0.014511 0.00293906 267 171 0 -2.86963 -0.635091 -0.257843 0.000229889 
0.126158 0.0134226 0.00253656 0.129168 0.0171167 0.00273377 334 30 0 -1.517 -2.57754 -0.118294 0.000230546 
0.0249012 0.01772 0.0027513 0.0281314 0.0214823 0.00299565 331 211 0 -0.294586 -0.343105 -0.0222847 3.52769e-05 
0.100448 0.01632 0.00299406 0.105046 0.0174552 0.00257201 373 198 0 -3.03237 -0.748461 0.279461 0.00024434 
0.129168 0.0171167 0.00273377 0.132621 0.0203931 0.00259492 30 310 0 -2.19633 -2.1291 0.0688583 0.000238367 
0.03473 0.0203176 0.00264717 0.033042 0.0249589 0.00288034 312 141 0 0.244204 -0.671439 -0.0337317 5.57291e-05 
0.0488996 0.0246956 0.00272277 0.0483816 0.0294917 0.00260015 103 223 0 0.240336 -2.22515 0.0569033 0.000174438 
0.0218786 0.0278456 0.00288671 0.0199312 0.0322215 0.0029426 339 144 0 1.32078 -2.36215 -0.0175812 0.000209989 
0.0565138 0.0271282 0.00263574 0.0562745 0.0318222 0.00299041 391 326 0 0.531465 -3.64819 -0.239234 0.000286584 
0.075585 0.0268941 0.00274874 0.0733676 0.0311321 0.00254288 276 268 0 1.26355 -2.41489 0.118459 0.000212572 
0.104779 0.0258291 0.00262286 0.103245 0.0305169 0.00286396 257 259 0 0.246328 -0.752792 -0.0387175 6.17869e-05 
0.115939 0.0275473 0.00256316 0.114925 0.032243 0.00275202 264 58 0 0.518376 -2.41117 -0.0979105 0.000192328 
0.131481 0.0257117 0.00252827 0.135475 0.0282829 0.00275165 66 376 0 -2.63736 -1.69781 -0.14777 0.000244665 
0.0397333 0.0287514 0.00299923 0.042724 0.0326805 0.00267051 351 70 0 -0.398602 -0.521616 0.0427192 5.12545e-05 
0.108725 0.0295965 0.00265361 0.109652 0.0343811 0.00285412 261 369 0 -0.298595 -1.54236 -0.0646414 0.000122507 
0.120393 0.0300149 0.00262941 0.120522 0.0347757 0.00257854 239 400 0 -0.118522 -3.04223 0.032289 0.000237224 
0.12631 0.028317 0.00272657 0.124933 0.0329818 0.00260956 234 367 0 0.556919 -1.63999 0.0408686 0.000134871 
0.0152435 0.031498 0.00268873 0.0199312 0.0322215 0.0029426 130 144 0 -3.17345 -0.439196 -0.17083 0.00024995 
0.025279 0.0326386 0.00272989 0.0301049 0.0327152 0.00297442 115 387 0 -2.14946 0.193714 -0.0743465 0.000167286 
0.025279 0.0326386 0.00272989 0.0263031 0.0372751 0.00290744 115 111 0 -0.673843 -3.11401 -0.119074 0.000248423 
0.0301049 0.0327152 0.00297442 0.0345263 0.031 0.00252223 387 256 0 -2.81331 1.08568 0.287507 0.000236032 
0.042724 0.0326805 0.00267051 0.0458351 0.0363376 0.00255719 70 403 0 -1.64466 -1.92338 0.0589802 0.00019723 
0.0562745 0.0318222 0.00299041 0.0518482 0.0332115 0.00261459 326 9 0 4.03063 -1.93888 0.302802 0.000345655 
0.0782246 0.0324969 0.00266199 0.081698 0.0357896 0.00271561 206 94 0 -1.98915 -1.88563 -0.0310026 0.000213584 
0.114925 0.032243 0.00275202 0.116325 0.0368997 0.00255921 58 102 0 -0.450518 -1.65306 0.0525783 0.000133498 
0.124933 0.0329818 0.00260956 0.120522 0.0347757 0.00257854 367 400 0 2.94696 -0.842249 0.0168918 0.000237426 
0.130642 0.0316494 0.00268398 0.135121 0.0337465 0.00276767 63 354 0 -0.6221 -0.291249 -0.0116235 5.35269e-05 
0.0518482 0.0332115 0.00261459 0.0504521 0.0377452 0.00271874 9 258 0 1.19505 -3.05682 -0.0425064 0.00025505 
0.120522 0.0347757 0.00257854 0.116325 0.0368997 0.00255921 400 102 0 3.26052 -1.99368 0.018831 0.000296812 
0.0458351 0.0363376 0.00255719 0.0504521 0.0377452 0.00271874 403 258 0 -2.19315 -0.309702 -0.0642988 0.000170555 
0.0504521 0.0377452 0.00271874 0.0550899 0.0389489 0.00290232 258 72 0 -2.4302 -1.10256 -0.110107 0.000205037 
0.0330978 0.0403714 0.00263777 0.0335974 0.0450572 0.0029292 243 342 0 -0.210546 -3.56888 -0.201976 0.000278691 
0.0758568 0.0389493 0.00252304 0.0719282 0.0419481 0.00263612 17 382 0 0.559367 -0.458973 -0.0138537 5.6344e-05 
0.110155 0.0394777 0.00299009 0.107747 0.0434755 0.00273596 384 85 0 1.86738 -3.75692 0.190579 0.000326141 
0.12705 0.0381502 0.00260244 0.13182 0.0386968 0.00264562 75 338 0 -2.52782 -0.276206 -0.0218098 0.000198134 
0.12705 0.0381502 0.00260244 0.128292 0.0428389 0.0029844 75 195 0 -0.39615 -1.67616 -0.136571 0.000134569 
0.0225516 0.0429888 0.00265728 0.0242718 0.0476184 0.0029046 353 93 0 -0.240046 -0.661342 -0.0349196 5.4882e-05 
0.0719282 0.0419481 0.00263612 0.0695029 0.0460338 0.00254565 382 96 0 1.62452 -2.73433 0.0607089 0.000247864 
0.0280944 0.0444922 0.00281121 0.0242718 0.0476184 0.0029046 356 93 0 0.600879 -0.499748 -0.01473 6.09006e-05 
0.0335974 0.0450572 0.0029292 0.0382816 0.0463456 0.00252765 342 6 0 -1.49537 -0.609458 0.107152 0.000125191 
0.0335974 0.0450572 0.0029292 0.0314849 0.0491964 0.00287319 342 212 0 1.82832 -4.14696 0.0217128 0.00035255 
0.0508569 0.043474 0.00297552 0.0534013 0.0476549 0.00269981 392 325 0 -0.90892 -0.916292 0.0701986 9.79565e-05 
0.0570836 0.044831 0.00275121 0.0615094 0.0435126 0.00252329 64 217 0 -4.70617 1.10842 0.182418 0.000376323 
0.0570836 0.044831 0.00275121 0.0534013 0.0476549 0.00269981 64 325 0 3.7953 -2.62847 0.0169391 0.000359279 
0.0615094 0.0435126 0.00252329 0.064701 0.0469816 0.00268948 217 349 0 -2.8764 -2.29163 -0.0916434 0.000283228 
0.0895196 0.0452295 0.00296397 0.094008 0.0434919 0.0027148 113 213 0 -2.15644 0.841149 0.121258 0.000180615 
0.0895196 0.0452295 0.00296397 0.09082 0.0499356 0.00258691 113 224 0 -0.111253 -1.33858 0.0876728 0.000103056 
0.107747 0.0434755 0.00273596 0.108771 0.0481383 0.0029239 85 152 0 -0.510911 -2.80725 -0.100827 0.000222324 
0.120136 0.0441963 0.0027409 0.119056 0.0488353 0.00279654 201 136 0 0.688665 -2.96007 -0.0355462 0.000236814 
0.0242718 0.0476184 0.0029046 0.0231216 0.0523363 0.00296918 93 199 0 0.436351 -1.78912 -0.0245249 0.000143497 
0.0382816 0.0463456 0.00252765 0.036556 0.0507715 0.00259618 6 38 0 1.15493 -2.98107 -0.0458121 0.000249126 
0.064701 0.0469816 0.00268948 0.0695029 0.0460338 0.00254565 349 96 0 -1.31573 0.182882 0.0266579 0.000103337 
0.0760423 0.0480404 0.00262743 0.0759731 0.0528843 0.00250242 11 410 0 0.0282308 -1.97486 0.0509755 0.000153938 
0.108771 0.0481383 0.0029239 0.109236 0.0529141 0.00285034 152 315 0 -0.285064 -2.56542 0.023963 0.000201089 
0.0420744 0.0513771 0.00296733 0.0467766 0.0510654 0.00266662 229 202 0 -3.57019 -0.033201 0.217742 0.000277918 
0.0467766 0.0510654 0.00266662 0.050758 0.0534585 0.00253981 202 343 0 -4.05336 -2.04696 0.146719 0.000353034 
0.0983792 0.0526195 0.00275833 0.100737 0.0568469 0.00278278 308 18 0 -0.998095 -1.78985 -0.0103561 0.000159676 
0.104256 0.0530644 0.00281997 0.109236 0.0529141 0.00285034 154 315 0 -0.22334 0.0116376 -0.00140535 1.74211e-05 
0.0128753 0.0576119 0.00269824 0.0176989 0.0582754 0.0025052 307 117 0 -1.61638 -0.222322 0.0646949 0.000127225 
0.0364276 0.0559132 0.00266462 0.0341221 0.0600274 0.00255949 182 411 0 1.40929 -3.36806 0.0557879 0.000282634 
0.0770772 0.0578329 0.00271091 0.0818615 0.0573072 0.00291593 161 365 0 -2.32666 0.255672 -0.101247 0.000182562 
0.0883563 0.057068 0.00289379 0.0901163 0.0615332 0.00269475 316 142 0 -0.9232 -2.34207 0.104449 0.000196318 
0.0240824 0.0584142 0.0026552 0.0238983 0.0631625 0.00286063 180 269 0 0.121123 -3.12257 -0.13572 0.000243719 
0.0341221 0.0600274 0.00255949 0.037039 0.0638031 0.00279572 411 5 0 -1.64309 -2.34253 -0.137086 0.000222973 
0.0678243 0.0596396 0.00300207 0.068204 0.0642974 0.00276646 245 303 0 -0.784289 -4.06083 0.230493 0.000320817 
0.124392 0.0585356 0.00250498 0.121716 0.0626135 0.00282279 355 87 0 0.568292 -1.34593 -0.0760195 0.000112115 
0.0725165 0.0622788 0.00250197 0.068204 0.0642974 0.00276646 314 303 0 2.5689 -1.49897 -0.157784 0.000231133 
0.114621 0.0608843 0.00296364 0.112826 0.0653337 0.00290091 324 296 0 0.71 -2.50265 0.0370464 0.000201548 
0.121716 0.0626135 0.00282279 0.125463 0.065617 0.00251778 87 228 0 -1.87403 -1.51195 0.154578 0.000188015 
0.0500148 0.0639265 0.00252651 0.0474366 0.0679312 0.002598 137 207 0 1.62943 -2.56248 -0.0463604 0.000236631 
0.068204 0.0642974 0.00276646 0.0697887 0.0687393 0.0025635 303 110 0 -0.766286 -3.53283 0.133064 0.000279514 
0.112826 0.0653337 0.00290091 0.108171 0.0666626 0.00259232 296 128 0 1.87136 -0.42901 0.110656 0.000149619 
0.112826 0.0653337 0.00290091 0.11704 0.0675328 0.00284569 296 372 0 -2.7774 -1.50117 0.0368469 0.000245989 
0.0296805 0.0672596 0.00294066 0.0286026 0.0718667 0.00260414 277 320 0 0.4845 -3.26102 0.213249 0.000256535 
0.0474366 0.0679312 0.002598 0.0519966 0.0696011 0.00278459 207 254 0 -1.65232 -0.718672 -0.0716238 0.000140256 
0.0769592 0.0664976 0.002502 0.0793752 0.0707271 0.00256098 108 290 0 -0.819535 -1.43472 -0.0200084 0.000128747 
0.0903674 0.0672704 0.00273697 0.0864104 0.0701474 0.00264733 405 226 0 1.10896 -0.806322 0.0251213 0.000106848 
0.129934 0.0704348 0.00272614 0.126952 0.0741442 0.00255168 23 350 0 1.90918 -2.37522 0.11186 0.000237603 
0.0127209 0.0715974 0.00290479 0.0135136 0.0762918 0.00296909 360 332 0 -0.514143 -3.02008 -0.0398715 0.000238727 
0.0286026 0.0718667 0.00260414 0.0323871 0.074721 0.00280916 320 404 0 -2.5564 -2.04774 -0.133204 0.000255316 
0.0366777 0.0719537 0.0027698 0.0393044 0.0759122 0.00281112 390 99 0 -1.79608 -2.64492 -0.0276195 0.000249108 
0.0996579 0.0708262 0.0029287 0.102946 0.0742917 0.00286489 169 352 0 -1.86547 -2.1609 0.0453688 0.000222221 
0.115037 0.0724753 0.00284798 0.119657 0.0736457 0.00266466 366 205 0 -2.863 -0.725253 0.113716 0.000230291 
0.0540817 0.0750672 0.00290096 0.0515828 0.0791784 0.00293774 79 221 0 1.24884 -2.07518 -0.0179776 0.00018873 
0.0858006 0.0752692 0.00262746 0.0811109 0.0761861 0.00279712 408 3 0 2.75022 -0.537712 -0.100378 0.000218496 
0.102946 0.0742917 0.00286489 0.103115 0.0789357 0.00265695 352 15 0 -0.513107 -4.44991 0.18938 0.000348249 
0.0135136 0.0762918 0.00296909 0.0150923 0.0807629 0.00265542 332 55 0 -0.925754 -3.04404 0.174094 0.000247998 
0.0393044 0.0759122 0.00281112 0.0438275 0.0773594 0.00281333 99 16 0 -3.01062 -1.1602 -0.00388345 0.000250957 
0.0983641 0.0775259 0.00272699 0.0944411 0.0802507 0.00288202 248 185 0 2.32869 -1.61695 -0.0920858 0.00022101 
0.0983641 0.0775259 0.00272699 0.103115 0.0789357 0.00265695 248 15 0 -0.56186 -0.0805904 0.00664805 4.37576e-05 
0.0515828 0.0791784 0.00293774 0.0564122 0.0799603 0.00257898 221 143 0 -1.14872 -0.477382 0.0949523 9.4589e-05 
0.0700301 0.0793329 0.0025751 0.0747504 0.0798311 0.0029017 20 344 0 -3.08381 -0.325461 -0.214395 0.000242198 
0.118998 0.079942 0.00284499 0.118008 0.0845953 0.00288251 129 175 0 0.640999 -3.04381 -0.0244564 0.000242373 
0.0150923 0.0807629 0.00265542 0.0143833 0.0853156 0.00276982 55 106 0 0.879752 -4.94021 -0.120632 0.000390989 
0.0143833 0.0853156 0.00276982 0.0126342 0.0897246 0.00286723 106 97 0 1.15146 -3.07211 -0.0692844 0.000255645 
0.0550932 0.0847942 0.00298957 0.0565552 0.0892414 0.00286117 383 251 0 -1.52177 -3.78028 0.0965305 0.000316933 
0.0707869 0.0850908 0.00257374 0.0754821 0.0857902 0.00277184 263 157 0 -3.15558 -0.470047 -0.133557 0.000248807 
0.0800606 0.0838292 0.00251713 0.0754821 0.0857902 0.00277184 73 157 0 0.152859 -0.0568513 -0.00706269 1.26975e-05 
0.118008 0.0845953 0.00288251 0.12287 0.084444 0.0028143 175 91 0 -1.73871 -0.0864302 0.0317221 0.000135211 
0.12287 0.084444 0.0028143 0.127617 0.0845243 0.00253099 91 280 0 -3.12134 0.0149701 0.186034 0.000243587 
0.12287 0.084444 0.0028143 0.122425 0.0892112 0.00277326 91 188 0 0.54856 -2.68064 0.00587794 0.000211928 
0.134571 0.0830629 0.00269016 0.133233 0.0876332 0.00273833 181 347 0 0.856926 -2.92722 -0.0308899 0.000237663 
0.0485862 0.0868963 0.00273422 0.051385 0.0907453 0.00272867 39 126 0 -1.81908 -2.50166 0.00361345 0.000241005 
0.0861514 0.0858772 0.00259995 0.0877379 0.0903611 0.00256811 210 386 0 -1.04304 -2.94787 0.0209686 0.000243648 
0.0565552 0.0892414 0.00286117 0.0600874 0.092279 0.00289969 251 388 0 -3.11302 -3.094 -0.0193466 0.00034109 
0.0600874 0.092279 0.00289969 0.0602596 0.0970101 0.00297257 388 291 0 -0.447972 -3.38947 -0.0511334 0.000265207 
0.0105278 0.0948785 0.00267454 0.011862 0.099507 0.00262552 262 394 0 -0.596069 -2.26986 0.0156703 0.000182798 
0.103241 0.0944184 0.00275666 0.101484 0.0988388 0.00282857 293 321 0 1.17255 -2.88524 -0.0323943 0.000242651 
0.103241 0.0944184 0.00275666 0.107091 0.0973839 0.00282075 293 340 0 -1.44093 -1.07113 -0.0235207 0.000139883 
0.120633 0.0972112 0.00266429 0.121156 0.101922 0.00299718 237 170 0 -0.350447 -3.15795 -0.223739 0.000248183 
0.125802 0.0967662 0.00262553 0.130122 0.09853 0.00301568 86 397 0 -3.66794 -1.77523 -0.290553 0.000317658 
0.011862 0.099507 0.00262552 0.0113878 0.104226 0.0028474 394 304 0 0.315831 -3.21717 -0.150496 0.000252148 
0.0199235 0.0985629 0.00269866 0.024508 0.0999381 0.00256955 135 337 0 -2.60466 -0.781283 0.0733984 0.000211955 
0.0363042 0.100167 0.00271868 0.040898 0.101317 0.00250213 285 57 0 -3.16174 -1.07342 0.129278 0.000259477 
0.0730466 0.0989983 0.00296669 0.0686606 0.100798 0.002649 370 281 0 2.94224 -1.20748 0.213748 0.000248366 
0.101484 0.0988388 0.00282857 0.0974935 0.101417 0.00266904 321 313 0 2.77025 -1.53355 0.103266 0.00024628 
0.101484 0.0988388 0.00282857 0.103637 0.103074 0.00277063 321 282 0 -1.71149 -2.71548 0.0285045 0.00024905 
0.130122 0.09853 0.00301568 0.132474 0.102575 0.00273641 397 231 0 -2.22832 -3.33792 0.189003 0.000312429 
0.040898 0.101317 0.00250213 0.0407787 0.106045 0.00286165 57 1 0 -0.066283 -3.28852 -0.24064 0.000256706 
0.0511159 0.102924 0.00289709 0.04792 0.106683 0.00291866 34 292 0 0.54176 -0.647162 -0.00408575 6.57543e-05 
0.0606231 0.102196 0.00264439 0.056209 0.104266 0.00264358 406 230 0 1.49499 -0.584022 0.00345894 0.000124781 
0.0606231 0.102196 0.00264439 0.0633253 0.106108 0.00279022 406 133 0 -1.78198 -2.56227 -0.0957839 0.00024329 
0.0731727 0.104034 0.00269698 0.0759663 0.107965 0.00275294 409 14 0 -1.31826 -1.85494 -0.0264165 0.00017732 
0.0407787 0.106045 0.00286165 0.0365872 0.108542 0.00262754 1 150 0 1.16802 -0.940368 0.0584479 0.000115762 
0.04792 0.106683 0.00291866 0.045471 0.110788 0.00298972 292 330 0 1.44312 -2.42184 -0.0414094 0.000219683 
0.0633253 0.106108 0.00279022 0.0682015 0.106305 0.0029003 133 147 0 -1.50743 -0.384685 -0.0351215 0.00011859 
0.0633253 0.106108 0.00279022 0.0607591 0.110271 0.002782 133 333 0 0.66517 -1.23785 -0.000437633 0.000109294 
0.0682015 0.106305 0.0029003 0.068351 0.111122 0.00289471 147 374 0 -0.0785757 -2.30725 0.0025567 0.000179891 
0.119823 0.107037 0.00296559 0.115923 0.109788 0.00257564 295 336 0 2.20937 -1.55776 0.221013 0.000211334 
0.0365872 0.108542 0.00262754 0.0395349 0.112284 0.00251481 150 371 0 -1.85702 -2.36779 0.0715292 0.000234528 
0.100453 0.109145 0.00263082 0.0987008 0.113553 0.00290531 328 44 0 1.17643 -2.96041 -0.184874 0.000248631 
0.131212 0.109672 0.00297691 0.135137 0.112372 0.002778 208 189 0 -2.44846 -1.68434 0.124915 0.000231771 
0.045471 0.110788 0.00298972 0.0439236 0.115398 0.00274211 330 164 0 0.544583 -1.58029 0.0810568 0.000130379 
0.0294161 0.113654 0.00252852 0.0343351 0.113539 0.00280352 42 138 0 -0.921669 0.0215971 -0.0515274 7.19428e-05 
0.110866 0.114523 0.00255202 0.111283 0.119369 0.0029826 233 177 0 -0.128346 -1.49177 -0.132556 0.000117117 
0.116794 0.11478 0.00281343 0.121705 0.114248 0.00286929 220 357 0 -0.766424 0.0830076 -0.00871837 6.00682e-05 
0.0561272 0.116838 0.00291665 0.0596217 0.120364 0.00273289 153 151 0 -0.278687 -0.308461 0.0146999 3.23687e-05 
0.0261946 0.118665 0.0025193 0.0237821 0.123036 0.00271246 278 2 0 0.0223058 -0.0404138 -0.00178588 3.59925e-06 
0.0386116 0.121069 0.00273913 0.0433406 0.120616 0.00269121 81 407 0 -3.1822 0.304896 0.0323489 0.000249098 
0.0596217 0.120364 0.00273289 0.0609125 0.124936 0.00265759 151 148 0 -0.865956 -3.06743 0.0506929 0.000248381 
0.0843294 0.122144 0.00299804 0.083066 0.126764 0.00262492 402 52 0 0.660905 -2.41681 0.195274 0.000195813 
0.0748691 0.123667 0.00259707 0.0759346 0.128209 0.00258675 414 300 0 -1.23079 -4.1253 0.0122384 0.000334832 
0.111888 0.124579 0.00266279 0.116413 0.123065 0.00265738 272 380 0 -2.78911 0.932932 0.00333966 0.000229152 
0.0314444 0.126476 0.00267792 0.0338715 0.13043 0.00254536 249 241 0 -2.5836 -3.81117 0.108451 0.000358474 
0.0932308 0.126549 0.00277713 0.0887577 0.128145 0.0025485 13 398 0 2.97312 -1.01997 0.150536 0.000245175 
0.0932308 0.126549 0.00277713 0.0927592 0.131356 0.00253682 13 119 0 0.0193282 -2.1169 0.0996795 0.000164484 
0.0222387 0.129141 0.00296786 0.0254363 0.132553 0.0027807 67 389 0 -2.99902 -2.813 0.174765 0.000319991 
0.0383056 0.128701 0.00251032 0.0338715 0.13043 0.00254536 118 241 0 2.81934 -1.26606 -0.0424101 0.000240522 
0.0759346 0.128209 0.00258675 0.0796268 0.131145 0.00254577 300 348 0 -2.734 -2.39126 0.0304703 0.00028271 
0.0989478 0.13022 0.00286269 0.103791 0.130674 0.00250353 146 74 0 -1.53704 -0.412024 0.0862777 0.000122391 
0.0254363 0.132553 0.0027807 0.0301197 0.133364 0.00250496 389 232 0 -3.00399 -0.580212 0.177079 0.000238748 
0.0338715 0.13043 0.00254536 0.0301197 0.133364 0.00250496 241 232 0 2.61697 -1.58909 0.0183835 0.000236879 
0.0338715 0.13043 0.00254536 0.0367788 0.134145 0.00271472 241 364 0 -2.04794 -2.95025 -0.118419 0.000279524 
0.103791 0.130674 0.00250353 0.104417 0.135433 0.00296672 74 155 0 -0.303877 -2.24848 -0.221742 0.000177643 
0.112075 0.132298 0.00273649 0.116698 0.133623 0.00292257 105 76 0 -2.30414 -0.660099 -0.0927669 0.00018689 
0.0109366 0.133507 0.00282243 0.0155842 0.134611 0.00249881 375 82 0 -2.64627 -0.628111 0.184389 0.000212401 
0.0834471 0.134843 0.00269038 0.0880967 0.133869 0.00272203 192 359 0 -3.13182 0.65622 -0.0213716 0.000249329 
