ITEM: TIMESTEP
3000
ITEM: NUMBER OF ENTRIES
366
ITEM: BOX BOUNDS pp pp pp
0.0165 0.129559
0.0165 0.129559
0 0.0055
ITEM: ENTRIES c_3[1] c_3[2] c_3[3] c_3[4] c_3[5] c_3[6] c_3[7] c_3[8] c_3[9] c_3[10] c_3[11] c_3[12] c_3[13] 
0.0652406 0.0184298 0.00252234 0.0698392 0.0182213 0.00300579 35 306 0 -4.83178 -1.74426 -0.420817 0.00037134 
0.0698392 0.0182213 0.00300579 0.0706208 0.0230398 0.00286667 306 68 0 -0.665633 -1.40756 -0.00892886 0.00011651 
0.0922442 0.0185898 0.00250321 0.0879887 0.0206171 0.00285921 309 98 0 3.1501 -1.50709 -0.263749 0.000272863 
0.0235564 0.0205657 0.00271279 0.028374 0.0211101 0.00302037 335 244 0 -1.89334 0.53355 -0.0630451 0.000141951 
0.0235564 0.0205657 0.00271279 0.0192105 0.0228612 0.0025203 335 47 0 1.16286 -0.0284676 0.0667687 8.13264e-05 
0.0235564 0.0205657 0.00271279 0.0255049 0.0251004 0.00294028 335 401 0 -0.613222 -0.561855 -0.0347749 5.91665e-05 
0.028374 0.0211101 0.00302037 0.0255049 0.0251004 0.00294028 244 401 0 0.920483 -0.677155 0.0169577 8.47261e-05 
0.028374 0.0211101 0.00302037 0.0309399 0.0246488 0.00273367 244 331 0 -5.35143 -5.93556 0.351421 0.000619619 
0.0749568 0.0209461 0.00247266 0.0706208 0.0230398 0.00286667 267 68 0 2.04835 -0.737095 -0.11553 0.000168839 
0.0749568 0.0209461 0.00247266 0.0797128 0.0223236 0.00299248 267 171 0 -0.300461 0.0521964 -0.0172259 2.13948e-05 
0.0833066 0.0191357 0.00285881 0.0879887 0.0206171 0.00285921 139 98 0 -1.16278 -0.119446 0.00886195 8.91645e-05 
0.0833066 0.0191357 0.00285881 0.0797128 0.0223236 0.00299248 139 171 0 2.34382 -1.11467 0.0201976 0.00019416 
0.0879887 0.0206171 0.00285921 0.0875163 0.0254588 0.0027888 98 225 0 0.259671 -1.7126 0.0163387 0.000134771 
0.102431 0.0197022 0.00262184 0.106049 0.0228775 0.00293835 247 283 0 -2.0348 -1.09456 -0.132411 0.000175712 
0.109196 0.0191533 0.00277508 0.106049 0.0228775 0.00293835 412 283 0 1.0281 -1.16673 -0.0524508 0.000121232 
0.118656 0.0208078 0.00250902 0.1218 0.0244216 0.00277101 334 30 0 -1.68224 -1.99271 -0.0210969 0.000202964 
0.0527796 0.0229609 0.0028384 0.0551659 0.0269052 0.0028574 165 49 0 -2.9464 -4.06756 0.0264033 0.000389989 
0.0706208 0.0230398 0.00286667 0.0661362 0.0244122 0.00270286 68 395 0 3.77465 -1.13399 0.127521 0.000307266 
0.0706208 0.0230398 0.00286667 0.0735522 0.0269969 0.00276882 68 385 0 -0.779826 -0.611601 0.000440308 7.44676e-05 
0.0967667 0.023377 0.00305075 0.0922631 0.024073 0.00283658 373 31 0 5.53686 -0.97872 0.123854 0.000437979 
0.0967667 0.023377 0.00305075 0.10149 0.0246563 0.00252254 373 198 0 -1.08704 0.13565 -0.0116031 7.84457e-05 
0.106049 0.0228775 0.00293835 0.10149 0.0246563 0.00252254 283 198 0 1.06248 -0.39097 0.0634595 8.82688e-05 
0.12621 0.0223929 0.0027748 0.1218 0.0244216 0.00277101 36 30 0 1.46426 -1.30447 0.0622131 0.000146151 
0.0255049 0.0251004 0.00294028 0.0215929 0.0276332 0.00263317 401 252 0 3.06615 -3.03408 0.227138 0.000329478 
0.0309399 0.0246488 0.00273367 0.0340132 0.0282381 0.0030092 331 211 0 -2.19018 -2.6253 -0.157148 0.000266637 
0.0875163 0.0254588 0.0027888 0.0922631 0.024073 0.00283658 225 31 0 -0.69531 0.128762 -0.0127269 5.48034e-05 
0.0922631 0.024073 0.00283658 0.0928254 0.0287784 0.00290315 31 32 0 0.0708119 -3.37735 0.00414093 0.000260619 
0.1218 0.0244216 0.00277101 0.125476 0.0274357 0.00258105 30 310 0 -1.99089 -2.48103 0.0647854 0.000242556 
0.0215929 0.0276332 0.00263317 0.0227483 0.0321312 0.00297752 252 162 0 -0.541964 -4.40227 -0.256329 0.000343254 
0.0396981 0.0267821 0.00263342 0.0380593 0.0313201 0.00289497 312 141 0 0.778255 -2.00887 -0.11295 0.000168064 
0.0551659 0.0269052 0.0028574 0.0595846 0.0282882 0.00253019 49 273 0 -4.06309 -2.3894 0.271818 0.000358344 
0.0551659 0.0269052 0.0028574 0.0521837 0.0304714 0.0027268 49 103 0 2.85179 -3.45866 0.0870214 0.000349288 
0.109846 0.027192 0.00275965 0.11459 0.027576 0.00254057 124 24 0 -3.016 -0.244468 0.140885 0.000236036 
0.11459 0.027576 0.00254057 0.119175 0.0292705 0.00261544 24 329 0 -1.30645 -0.556882 -0.0154736 0.000110509 
0.125476 0.0274357 0.00258105 0.123652 0.0315552 0.00250249 310 66 0 0.448396 -6.73679 0.0954725 0.000494158 
0.0595846 0.0282882 0.00253019 0.0587239 0.0325377 0.00259971 273 391 0 0.581753 -8.57023 -0.210516 0.000663634 
0.0821501 0.0283084 0.00274077 0.0853287 0.0318266 0.0025719 19 166 0 -2.19674 -2.43328 0.116792 0.000255585 
0.0928254 0.0287784 0.00290315 0.0975129 0.0284826 0.00256385 32 305 0 -3.75345 -0.344231 0.258998 0.000290892 
0.0975129 0.0284826 0.00256385 0.100825 0.0315992 0.0026085 305 257 0 -4.01759 -4.19819 -0.0577296 0.000452139 
0.105506 0.0305024 0.00288389 0.100825 0.0315992 0.0026085 187 257 0 2.25531 -0.702655 0.100956 0.000183722 
0.105506 0.0305024 0.00288389 0.104124 0.034842 0.00263569 187 261 0 1.41006 -5.45556 0.232477 0.000438689 
0.119175 0.0292705 0.00261544 0.119631 0.0337088 0.00273971 329 234 0 -0.516074 -6.86917 -0.136388 0.000536598 
0.0227483 0.0321312 0.00297752 0.0220729 0.036762 0.00265651 162 130 0 -0.342651 -4.05508 0.212626 0.000309199 
0.0380593 0.0313201 0.00289497 0.0338615 0.0333696 0.0025942 141 7 0 3.50024 -2.14866 0.209102 0.000318901 
0.0473992 0.0308229 0.00289096 0.0521837 0.0304714 0.0027268 156 103 0 -2.63231 -0.87511 0.121865 0.000199777 
0.0473992 0.0308229 0.00289096 0.0438056 0.0340783 0.00302976 156 351 0 1.25441 -1.46742 -0.0103732 0.000149139 
0.0521837 0.0304714 0.0027268 0.0512441 0.0351504 0.00258538 103 223 0 -0.846628 -3.12088 0.0988601 0.00022556 
0.0587239 0.0325377 0.00259971 0.0590276 0.0373172 0.00308788 391 326 0 1.02777 -2.46174 -0.0917825 0.000186118 
0.0853287 0.0318266 0.0025719 0.0875963 0.0360863 0.00253475 166 362 0 -1.10664 -1.94411 -0.0140336 0.000174193 
0.100825 0.0315992 0.0026085 0.0993132 0.0361876 0.00287848 257 259 0 0.606622 -1.97874 -0.11695 0.000161501 
0.100825 0.0315992 0.0026085 0.104124 0.034842 0.00263569 257 261 0 -3.58217 -3.20509 -0.0336672 0.000374103 
0.123652 0.0315552 0.00250249 0.119631 0.0337088 0.00273971 66 234 0 4.89349 -2.61306 -0.183982 0.000432371 
0.028628 0.0332028 0.00288482 0.0267863 0.0378285 0.00298246 339 144 0 0.0902645 -0.244814 0.0687312 2.02477e-05 
0.028628 0.0332028 0.00288482 0.0309925 0.0374017 0.00268536 339 115 0 -1.76753 -1.61237 0.0377808 0.000177007 
0.0338615 0.0333696 0.0025942 0.0309925 0.0374017 0.00268536 7 115 0 0.33226 -0.559092 -0.0192544 5.05155e-05 
0.0338615 0.0333696 0.0025942 0.0355199 0.0379945 0.00304874 7 387 0 -0.0140886 -0.89235 -0.0324453 6.5774e-05 
0.0438056 0.0340783 0.00302976 0.0399343 0.0361708 0.00246169 351 256 0 6.83045 -2.51862 0.606554 0.000562906 
0.0438056 0.0340783 0.00302976 0.0464575 0.0377071 0.00265775 351 70 0 -3.91821 -4.91055 0.433155 0.000490161 
0.0512441 0.0351504 0.00258538 0.0543409 0.0382557 0.00255366 223 9 0 -4.91545 -6.23253 -0.0351788 0.000614264 
0.0636192 0.0348729 0.00297863 0.0673136 0.0378969 0.0026915 301 71 0 -2.15289 -1.76224 0.167399 0.000217165 
0.0804288 0.0340309 0.0029902 0.0773769 0.0375346 0.00265288 215 206 0 2.46662 -3.64508 0.301591 0.000341204 
0.104124 0.034842 0.00263569 0.105028 0.039313 0.00286303 261 369 0 -1.13318 -5.43211 -0.253426 0.000432785 
0.110422 0.0326963 0.00254049 0.114505 0.0350166 0.00263663 264 239 0 -3.37872 -1.92194 -0.0328926 0.00030287 
0.110422 0.0326963 0.00254049 0.10935 0.037519 0.00278941 264 58 0 0.218484 -0.654856 0.0570694 5.32192e-05 
0.119631 0.0337088 0.00273971 0.123103 0.0368168 0.00267924 234 63 0 -3.84447 -2.25368 0.00656153 0.000340266 
0.119631 0.0337088 0.00273971 0.118713 0.0382152 0.00260261 234 367 0 1.79059 -4.85754 0.11835 0.000398816 
0.127924 0.034209 0.00277548 0.127451 0.0388919 0.00277282 376 354 0 0.240549 -3.75829 -0.026649 0.000293228 
0.0220729 0.036762 0.00265651 0.0267863 0.0378285 0.00298246 130 144 0 -2.16356 0.444573 -0.0162765 0.000156503 
0.0220729 0.036762 0.00265651 0.019554 0.0406185 0.00257818 130 121 0 3.50564 -3.7331 0.140314 0.000393004 
0.0267863 0.0378285 0.00298246 0.0309925 0.0374017 0.00268536 144 115 0 -9.94431 -1.17132 0.373453 0.000761802 
0.0267863 0.0378285 0.00298246 0.0270178 0.042613 0.0026194 144 399 0 -0.16298 -2.50963 0.134981 0.000196128 
0.0309925 0.0374017 0.00268536 0.0355199 0.0379945 0.00304874 115 387 0 -5.54048 0.806403 -0.145321 0.000419458 
0.0399343 0.0361708 0.00246169 0.0355199 0.0379945 0.00304874 256 387 0 2.51698 -0.260183 -0.0209686 0.000187782 
0.0590276 0.0373172 0.00308788 0.0543409 0.0382557 0.00255366 326 9 0 2.1764 -1.63816 0.0454168 0.00019056 
0.0727998 0.0368097 0.00251256 0.0773769 0.0375346 0.00265288 268 206 0 -4.4283 -1.87517 -0.115187 0.000363763 
0.0773769 0.0375346 0.00265288 0.0809905 0.0409054 0.00272205 206 94 0 -0.559936 -0.486999 0.00215939 5.7784e-05 
0.0875963 0.0360863 0.00253475 0.0922972 0.0363501 0.00290779 362 109 0 -3.56374 0.222848 -0.245293 0.00027692 
0.0875963 0.0360863 0.00253475 0.0871035 0.0405909 0.00298525 362 363 0 1.21891 -5.61392 -0.416661 0.00044617 
0.10935 0.037519 0.00278941 0.105028 0.039313 0.00286303 58 369 0 3.84999 -1.41309 -0.11097 0.000319348 
0.10935 0.037519 0.00278941 0.110443 0.0419944 0.00251427 58 102 0 -1.68131 -4.67862 0.107846 0.000385035 
0.114505 0.0350166 0.00263663 0.114536 0.0400101 0.00257121 239 400 0 -0.0356965 -0.0764795 -0.000650446 5.99168e-06 
0.123103 0.0368168 0.00267924 0.118713 0.0382152 0.00260261 63 367 0 4.91459 -1.14283 0.0706636 0.0003919 
0.123103 0.0368168 0.00267924 0.127451 0.0388919 0.00277282 63 354 0 -2.13861 -0.9215 -0.0426401 0.000181355 
0.0464575 0.0377071 0.00265775 0.0490656 0.0413179 0.00252526 70 403 0 -4.54648 -5.32224 0.17807 0.00054375 
0.0543409 0.0382557 0.00255366 0.0531607 0.04277 0.0027198 9 258 0 1.88863 -3.90327 0.0529605 0.000331093 
0.105028 0.039313 0.00286303 0.105687 0.0434224 0.00303311 369 384 0 -0.490246 -10.7679 -0.269138 0.00083458 
0.114536 0.0400101 0.00257121 0.118713 0.0382152 0.00260261 400 367 0 -5.41847 2.14925 -0.0624672 0.00045402 
0.114536 0.0400101 0.00257121 0.110443 0.0419944 0.00251427 400 102 0 5.0701 -2.80805 -0.0649315 0.000450819 
0.118713 0.0382152 0.00260261 0.119778 0.0423504 0.00257353 367 75 0 -4.13941 -8.6024 0.00859113 0.00072951 
0.019554 0.0406185 0.00257818 0.0201891 0.0453635 0.00284453 121 250 0 -0.302075 -2.61493 -0.141952 0.000205358 
0.0490656 0.0413179 0.00252526 0.0531607 0.04277 0.0027198 403 258 0 -8.20733 -1.83241 -0.288753 0.000650776 
0.0531607 0.04277 0.0027198 0.0578244 0.0435002 0.00292454 258 72 0 -3.35415 -1.37498 -0.152037 0.000275034 
0.0531607 0.04277 0.0027198 0.0534657 0.0471084 0.00299624 258 392 0 -0.760821 -8.19508 -0.458696 0.000642058 
0.0634795 0.0416803 0.00276648 0.0676577 0.0441179 0.00292145 134 21 0 -1.78514 -1.02046 -0.0602884 0.000160268 
0.0634795 0.0416803 0.00276648 0.0634129 0.0465509 0.00246211 134 217 0 0.249858 -1.52985 0.0578422 0.000119479 
0.0871035 0.0405909 0.00298525 0.0852522 0.0447739 0.00251445 363 311 0 1.66461 -4.88597 0.372662 0.000401479 
0.09426 0.0412438 0.00291011 0.0959157 0.0456977 0.00263921 240 358 0 -0.512781 -3.09896 0.166415 0.000240597 
0.110443 0.0419944 0.00251427 0.105687 0.0434224 0.00303311 102 384 0 0.0969982 -0.0287531 -0.00578368 7.86621e-06 
0.110443 0.0419944 0.00251427 0.109527 0.0460882 0.00293866 102 176 0 3.38307 -9.52515 -0.73539 0.000783588 
0.0270178 0.042613 0.0026194 0.0289608 0.0467105 0.00264173 399 353 0 -2.47928 -5.43121 -0.078236 0.000465157 
0.038128 0.0437344 0.00259422 0.0386314 0.0485034 0.00300456 243 342 0 -0.61311 -2.36202 0.0469191 0.000187054 
0.0578244 0.0435002 0.00292454 0.0588559 0.0481487 0.00279354 72 64 0 -1.60871 -2.75331 0.0794582 0.000236638 
0.0676577 0.0441179 0.00292145 0.0634129 0.0465509 0.00246211 21 217 0 0.934318 -0.582149 0.0656983 8.579e-05 
0.0676577 0.0441179 0.00292145 0.0720967 0.0456433 0.00265447 21 382 0 -3.54094 -1.46612 0.236996 0.000298602 
0.075823 0.043021 0.00251412 0.0720967 0.0456433 0.00265447 17 382 0 4.33 -3.68783 -0.112449 0.000441341 
0.0852522 0.0447739 0.00251445 0.0808444 0.0468822 0.00265502 311 116 0 1.35644 -0.494601 0.00150802 0.000111907 
0.0852522 0.0447739 0.00251445 0.0869857 0.0487863 0.00302945 311 113 0 -3.59707 -6.8034 -0.571693 0.000598869 
0.100171 0.0429668 0.00250764 0.102892 0.0471336 0.00267655 25 85 0 -0.166987 -0.203529 -0.01345 2.04045e-05 
0.105687 0.0434224 0.00303311 0.102892 0.0471336 0.00267655 384 85 0 1.51566 -4.32851 0.122886 0.000340181 
0.105687 0.0434224 0.00303311 0.109527 0.0460882 0.00293866 384 176 0 -4.46729 -0.87378 0.0774351 0.000324799 
0.119778 0.0423504 0.00257353 0.124719 0.043096 0.00264784 75 338 0 -0.0393641 0.005882 0.0100638 2.97485e-06 
0.119778 0.0423504 0.00257353 0.121305 0.0469853 0.00301117 75 195 0 0.207803 -1.42221 -0.112089 0.000100578 
0.0289608 0.0467105 0.00264173 0.0304572 0.0509573 0.00292174 353 93 0 -2.34031 -5.8151 -0.318944 0.000488534 
0.0634129 0.0465509 0.00246211 0.0588559 0.0481487 0.00279354 217 64 0 2.13162 -0.133984 0.028518 0.000159681 
0.0634129 0.0465509 0.00246211 0.065807 0.0508522 0.00272227 217 349 0 -0.830784 -0.571163 -0.0244798 7.03874e-05 
0.0720967 0.0456433 0.00265447 0.0700878 0.049669 0.0025069 382 96 0 3.58797 -5.36298 0.0089156 0.000498458 
0.0959157 0.0456977 0.00263921 0.0916596 0.0471165 0.00268933 358 213 0 6.2093 -2.20402 -0.108161 0.000513347 
0.109527 0.0460882 0.00293866 0.114243 0.0474164 0.00273504 176 201 0 -1.02056 -0.924409 0.0256046 9.60562e-05 
0.0340458 0.0479247 0.0028051 0.0386314 0.0485034 0.00300456 356 342 0 -4.81092 -0.215269 -0.0410435 0.000373764 
0.0340458 0.0479247 0.0028051 0.0304572 0.0509573 0.00292174 356 93 0 3.12841 -2.26493 -0.0482821 0.000300097 
0.0386314 0.0485034 0.00300456 0.0432665 0.0493985 0.0024907 342 6 0 -2.9809 -1.56197 0.204206 0.000251389 
0.0386314 0.0485034 0.00300456 0.0364623 0.0527805 0.00287683 342 212 0 0.887333 -2.46827 -0.0724391 0.00020258 
0.0487487 0.0480457 0.00254158 0.0534657 0.0471084 0.00299624 95 392 0 -2.18813 0.115273 -0.144232 0.000169266 
0.0534657 0.0471084 0.00299624 0.0553364 0.0515985 0.00268149 392 325 0 -1.36015 -1.1766 0.0986907 0.000125632 
0.0588559 0.0481487 0.00279354 0.0553364 0.0515985 0.00268149 64 325 0 0.957271 -0.314343 -0.029145 7.03647e-05 
0.0869857 0.0487863 0.00302945 0.0916596 0.0471165 0.00268933 113 213 0 -0.296904 0.12997 -0.00931343 2.50862e-05 
0.0869857 0.0487863 0.00302945 0.0885806 0.0532166 0.00256309 113 224 0 -0.500292 -3.4775 0.188209 0.000268288 
0.102892 0.0471336 0.00267655 0.104276 0.051469 0.00295521 85 152 0 -0.266163 -5.85787 -0.0818164 0.000440677 
0.114243 0.0474164 0.00273504 0.113147 0.0522679 0.00280171 201 136 0 0.197002 -0.293437 -0.00283314 2.57027e-05 
0.0304572 0.0509573 0.00292174 0.0293736 0.0553735 0.0029768 93 199 0 1.35582 -5.64692 -0.118621 0.000452559 
0.0432665 0.0493985 0.0024907 0.0409945 0.0537186 0.00258924 6 38 0 0.0372596 -1.69058 -0.0175252 0.000117948 
0.0553364 0.0515985 0.00268149 0.0541674 0.0563171 0.00250571 325 343 0 0.723327 -1.61327 0.0435899 0.000135575 
0.065807 0.0508522 0.00272227 0.0700878 0.049669 0.0025069 349 96 0 -7.22533 0.52879 0.134217 0.000553467 
0.0700878 0.049669 0.0025069 0.071436 0.0538788 0.00285085 96 322 0 -3.18136 -6.60556 -0.371709 0.000566294 
0.0756655 0.050842 0.00263773 0.0755918 0.0556206 0.00247492 11 410 0 0.295228 -2.79509 0.0349339 0.000218092 
0.0968756 0.0508871 0.00295636 0.0949235 0.0550419 0.00275048 53 308 0 1.54206 -5.01221 0.206263 0.000404873 
0.104276 0.051469 0.00295521 0.104897 0.0560482 0.00284601 152 315 0 -0.211576 -4.86303 0.0183365 0.000377633 
0.0364623 0.0527805 0.00287683 0.0409945 0.0537186 0.00258924 212 38 0 -4.30317 -2.16103 0.208326 0.00036275 
0.0364623 0.0527805 0.00287683 0.0355404 0.0569791 0.00279897 212 37 0 2.50688 -8.65487 0.174954 0.000700673 
0.0409945 0.0537186 0.00258924 0.0453349 0.0540549 0.00302496 38 229 0 -8.02087 -0.0949647 -0.554419 0.00062484 
0.0409945 0.0537186 0.00258924 0.0411547 0.0578843 0.00267071 38 182 0 0.886687 -10.6999 -0.126006 0.000830446 
0.0453349 0.0540549 0.00302496 0.0501571 0.0535033 0.00264558 229 202 0 -1.73253 -0.269837 0.0352214 0.000131546 
0.0453349 0.0540549 0.00302496 0.0456691 0.0587898 0.00294917 229 413 0 1.2687 -3.34229 -0.0115465 0.000252775 
0.0501571 0.0535033 0.00264558 0.0541674 0.0563171 0.00250571 202 343 0 -1.40387 -0.212042 0.0365925 9.9084e-05 
0.071436 0.0538788 0.00285085 0.0755918 0.0556206 0.00247492 322 410 0 -5.44211 -2.87978 0.327602 0.000478254 
0.113147 0.0522679 0.00280171 0.10928 0.0545805 0.00281467 136 288 0 5.11979 -3.80249 -0.028421 0.000494423 
0.113147 0.0522679 0.00280171 0.117521 0.0538281 0.0027992 136 271 0 -4.08939 -2.14042 -0.00772801 0.000356131 
0.0185172 0.0552283 0.0027063 0.0202261 0.0595591 0.00271237 12 307 0 -2.21648 -3.87559 0.0253016 0.000344272 
0.0293736 0.0553735 0.0029768 0.030338 0.0597761 0.00263077 199 180 0 -0.88424 -6.10022 0.355713 0.000479713 
0.0541674 0.0563171 0.00250571 0.0584574 0.0555895 0.00263084 343 88 0 -8.50143 -0.483448 -0.194356 0.000646934 
0.0584574 0.0555895 0.00263084 0.0587365 0.0603166 0.00300723 88 227 0 -1.0268 -3.13924 -0.268427 0.000249776 
0.0755918 0.0556206 0.00247492 0.0761205 0.0600662 0.00269933 410 161 0 -1.81501 -6.46676 -0.269809 0.000517439 
0.0949235 0.0550419 0.00275048 0.0973002 0.0592972 0.00278372 308 18 0 -0.835144 -1.38304 0.00862352 0.000125823 
0.100139 0.0555767 0.00281916 0.104897 0.0560482 0.00284601 154 315 0 -2.92914 1.11622 -0.0259753 0.00021856 
0.100139 0.0555767 0.00281916 0.0973002 0.0592972 0.00278372 154 18 0 3.68445 -2.35923 0.0393979 0.000320292 
0.104897 0.0560482 0.00284601 0.10928 0.0545805 0.00281467 315 288 0 -5.02396 0.236754 0.034675 0.000377038 
0.122935 0.0557189 0.00274979 0.126122 0.0592456 0.0028639 77 279 0 -2.03388 -2.40308 -0.0716973 0.000245231 
0.0411547 0.0578843 0.00267071 0.0456691 0.0587898 0.00294917 182 413 0 -4.95164 -0.53702 -0.308468 0.000387254 
0.0411547 0.0578843 0.00267071 0.038769 0.0616883 0.00252176 182 411 0 2.95556 -5.83227 0.10882 0.000507317 
0.0202261 0.0595591 0.00271237 0.0250723 0.0601996 0.00249087 307 117 0 -1.34009 -0.297437 0.0626487 0.000106685 
0.0683354 0.0606541 0.00304534 0.0684611 0.0655117 0.00278529 245 303 0 -0.597292 -1.6973 0.135482 0.000133798 
0.0761205 0.0600662 0.00269933 0.0730375 0.0633932 0.00247122 161 314 0 4.15718 -4.16544 0.214595 0.000458441 
0.0862596 0.0587172 0.00291185 0.0882098 0.0632382 0.0026673 316 142 0 0.0528863 -1.0047 0.0135011 7.02352e-05 
0.117976 0.0600695 0.00248614 0.114973 0.0639102 0.00287704 355 87 0 0.339212 -1.50885 -0.0759773 0.000109045 
0.126122 0.0592456 0.0028639 0.123255 0.0630165 0.00270194 279 297 0 1.9593 -2.70146 0.111909 0.000260098 
0.0344934 0.0629448 0.00255529 0.038769 0.0616883 0.00252176 289 411 0 -6.73326 1.82818 -0.0324581 0.000543472 
0.0344934 0.0629448 0.00255529 0.0301329 0.0649337 0.00288442 289 269 0 2.45002 -0.682362 -0.14217 0.000196027 
0.0344934 0.0629448 0.00255529 0.0352604 0.0674652 0.00297803 289 277 0 0.160831 -5.16807 -0.321342 0.00039551 
0.038769 0.0616883 0.00252176 0.0417116 0.0653588 0.00282997 411 5 0 -2.1572 -2.97163 -0.0747261 0.000285545 
0.0730375 0.0633932 0.00247122 0.0762946 0.0670418 0.0024976 314 108 0 -0.987565 -0.995403 2.30406e-05 0.000109079 
0.0882098 0.0632382 0.0026673 0.09282 0.0649105 0.002851 142 260 0 -1.10667 -0.427232 -0.0263437 9.24068e-05 
0.0882098 0.0632382 0.0026673 0.0841731 0.0657209 0.00299191 142 149 0 1.91121 -3.00899 -0.146466 0.00024988 
0.0882098 0.0632382 0.0026673 0.0885457 0.0679253 0.00273453 142 405 0 0.0655059 -3.8707 -0.0145911 0.000300425 
0.109456 0.0619659 0.00297244 0.107623 0.0663563 0.00293166 324 296 0 1.19395 -2.87183 0.118598 0.000242413 
0.0417116 0.0653588 0.00282997 0.0458172 0.0672481 0.00269387 5 131 0 -5.39504 -2.96344 0.0940982 0.000478405 
0.0531793 0.0646829 0.00251774 0.050293 0.0686602 0.00257807 137 207 0 0.204699 -1.20488 -0.0712901 8.54211e-05 
0.0684611 0.0655117 0.00278529 0.0651314 0.0685482 0.00268663 303 393 0 4.87459 -4.03482 0.0935312 0.000492514 
0.0684611 0.0655117 0.00278529 0.0703552 0.0700493 0.00253342 303 110 0 0.0700952 -1.09294 0.0332632 7.65383e-05 
0.0841731 0.0657209 0.00299191 0.0885457 0.0679253 0.00273453 149 405 0 -0.826463 -1.10664 0.0702203 9.64968e-05 
0.0841731 0.0657209 0.00299191 0.0845107 0.0705189 0.00264062 149 226 0 -0.0137564 -2.27872 0.11121 0.000177336 
0.0993939 0.0655922 0.00273164 0.103319 0.0675977 0.00255433 378 128 0 -7.15761 -2.60421 0.142741 0.000588899 
0.0352604 0.0674652 0.00297803 0.0337961 0.0721377 0.00254469 277 320 0 -0.185839 -1.19333 0.0329665 8.43112e-05 
0.0458172 0.0672481 0.00269387 0.050293 0.0686602 0.00257807 131 207 0 -3.72456 -1.22017 0.0676686 0.000305359 
0.0762946 0.0670418 0.0024976 0.0787271 0.0712973 0.00256489 108 290 0 -0.605896 -1.10001 -0.0205375 9.78736e-05 
0.0885457 0.0679253 0.00273453 0.0845107 0.0705189 0.00264062 405 226 0 1.48962 -2.48498 0.0822943 0.00020243 
0.0885457 0.0679253 0.00273453 0.0895205 0.0726249 0.0025075 405 40 0 -1.22453 -2.29906 0.124192 0.000195012 
0.103319 0.0675977 0.00255433 0.107623 0.0663563 0.00293166 128 296 0 -6.23752 1.68389 -0.388935 0.000504099 
0.103319 0.0675977 0.00255433 0.105066 0.0717371 0.00269385 128 236 0 -1.81362 -6.26738 -0.115526 0.000504858 
0.107623 0.0663563 0.00293166 0.111961 0.068492 0.00284028 296 372 0 -1.6636 -1.38491 -0.0605247 0.000163843 
0.111961 0.068492 0.00284028 0.109432 0.0724956 0.00287155 372 366 0 0.493952 -3.70062 0.0431734 0.000264291 
0.050293 0.0686602 0.00257807 0.0549556 0.0701661 0.00279831 207 254 0 -1.07634 -0.646508 -0.0238432 9.52918e-05 
0.050293 0.0686602 0.00257807 0.0482614 0.0724891 0.00296941 207 27 0 4.2837 -7.11774 -0.592831 0.00064786 
0.0549556 0.0701661 0.00279831 0.0566493 0.0744666 0.00290238 254 79 0 -2.17219 -4.34174 -0.113747 0.000376865 
0.0651314 0.0685482 0.00268663 0.0667321 0.0732065 0.00258943 393 415 0 -0.18055 -0.934117 0.0200863 7.34143e-05 
0.0703552 0.0700493 0.00253342 0.0667321 0.0732065 0.00258943 110 415 0 1.4049 -2.1785 0.00801854 0.000194003 
0.0703552 0.0700493 0.00253342 0.0737226 0.0737359 0.00265607 110 89 0 -0.0457435 -0.0530806 -0.000871137 5.43636e-06 
0.0845107 0.0705189 0.00264062 0.0846427 0.0750757 0.00260738 226 408 0 1.54394 -5.70979 0.019819 0.000441219 
0.020282 0.0711304 0.0028993 0.0209647 0.0757316 0.0030265 360 332 0 -1.22072 -4.32221 0.113835 0.000346704 
0.0337961 0.0721377 0.00254469 0.0303625 0.0750474 0.0027 320 46 0 5.12467 -3.81321 -0.0854385 0.000496627 
0.0337961 0.0721377 0.00254469 0.037823 0.074947 0.00283171 320 404 0 -0.807152 -0.685816 0.0893051 8.16196e-05 
0.041122 0.07153 0.0027641 0.037823 0.074947 0.00283171 390 404 0 3.37841 -1.1955 -0.0189408 0.000249861 
0.041122 0.07153 0.0027641 0.0434228 0.0758198 0.0028155 390 99 0 -1.5434 -1.09304 -0.0119757 0.000131906 
0.0482614 0.0724891 0.00296941 0.0480477 0.0771867 0.00280951 27 16 0 1.59517 -3.71485 0.0711262 0.000294821 
0.0603158 0.0718491 0.00274778 0.0566493 0.0744666 0.00290238 194 79 0 4.96048 -3.92273 -0.194263 0.000492386 
0.0787271 0.0712973 0.00256489 0.0795637 0.0758977 0.0028175 290 3 0 -1.45357 -3.87106 -0.18048 0.000317293 
0.0958294 0.0705779 0.00294091 0.099485 0.0739274 0.00288575 169 352 0 -0.215135 -0.553657 0.021818 4.15368e-05 
0.105066 0.0717371 0.00269385 0.109432 0.0724956 0.00287155 236 366 0 -7.20362 -0.881907 -0.198661 0.000564917 
0.105066 0.0717371 0.00269385 0.103708 0.076227 0.0027991 236 204 0 1.63692 -3.63462 -0.0728908 0.000308047 
0.109432 0.0724956 0.00287155 0.114167 0.0736812 0.00264571 366 205 0 -1.36643 -0.533935 0.0207437 0.000113348 
0.037823 0.074947 0.00283171 0.0361133 0.079586 0.0028066 404 45 0 0.115613 -0.7231 -0.00257294 5.59585e-05 
0.0566493 0.0744666 0.00290238 0.0586536 0.0788744 0.00252263 79 143 0 -0.569536 -1.76059 0.0440871 0.000143058 
0.099485 0.0739274 0.00288575 0.103708 0.076227 0.0027991 352 204 0 -2.55906 -0.421507 0.0260598 0.000190819 
0.0209647 0.0757316 0.0030265 0.022763 0.0795726 0.00257909 332 55 0 -2.95666 -9.02103 0.62535 0.000735309 
0.0434228 0.0758198 0.0028155 0.0480477 0.0771867 0.00280951 99 16 0 -2.19052 -0.619891 -0.0256043 0.000177391 
0.0434228 0.0758198 0.0028155 0.0426541 0.0804514 0.00285088 99 242 0 1.01148 -3.7988 -0.0312676 0.000304895 
0.0626813 0.0769676 0.00274179 0.0586536 0.0788744 0.00252263 270 143 0 6.00695 -3.46158 0.15842 0.000538382 
0.0626813 0.0769676 0.00274179 0.0660312 0.0803389 0.00262598 270 61 0 -2.89571 -1.57196 0.062897 0.000245941 
0.0952772 0.0766864 0.00271369 0.0913463 0.0795494 0.00289925 248 185 0 1.81024 -0.422926 -0.0568778 0.000133499 
0.0952772 0.0766864 0.00271369 0.0996143 0.0789226 0.00262064 248 15 0 -1.71159 -0.0238081 0.0276621 0.000119424 
0.103708 0.076227 0.0027991 0.0996143 0.0789226 0.00262064 204 15 0 1.26994 -0.295102 0.0162052 9.52573e-05 
0.022763 0.0795726 0.00257909 0.0269946 0.0807291 0.00281958 55 184 0 -7.65977 -1.51817 -0.146407 0.000606583 
0.022763 0.0795726 0.00257909 0.0219705 0.0839719 0.00277439 55 106 0 0.72917 -6.72838 -0.0237201 0.000525593 
0.0361133 0.079586 0.0028066 0.0384466 0.0837213 0.00271632 45 41 0 -1.58262 -2.80521 0.0612948 0.000251001 
0.0538139 0.0787422 0.0029611 0.0586536 0.0788744 0.00252263 221 143 0 -1.75596 -0.9306 0.0701768 0.000138688 
0.0586536 0.0788744 0.00252263 0.0569649 0.0828721 0.00304152 143 383 0 1.66053 -8.0489 -0.619858 0.000629347 
0.0701495 0.078383 0.00253591 0.0660312 0.0803389 0.00262598 20 61 0 5.34144 -1.91488 -0.0261232 0.000439912 
0.0701495 0.078383 0.00253591 0.0750573 0.0790166 0.00293991 20 344 0 -0.473881 0.159733 -0.00591709 3.49582e-05 
0.0865539 0.0798943 0.00259683 0.0913463 0.0795494 0.00289925 100 185 0 -2.35782 0.417982 -0.114752 0.000185751 
0.0865539 0.0798943 0.00259683 0.0842945 0.0838602 0.00260335 100 210 0 2.16284 -5.20316 0.000342523 0.000435667 
0.0865539 0.0798943 0.00259683 0.0895609 0.0837389 0.00277098 100 287 0 -1.14027 -0.997665 -0.0610668 0.000116067 
0.0913463 0.0795494 0.00289925 0.0895609 0.0837389 0.00277098 185 287 0 2.64963 -5.06571 0.111442 0.000444093 
0.0996143 0.0789226 0.00262064 0.102718 0.0824306 0.00299013 15 317 0 -2.25263 -3.16744 -0.215007 0.000301486 
0.113222 0.0785997 0.00284151 0.111821 0.083385 0.00290449 129 175 0 -0.0314521 -0.191061 0.0058192 1.36084e-05 
0.0269946 0.0807291 0.00281958 0.0305966 0.0836319 0.00258308 184 284 0 -3.74915 -2.86587 0.202438 0.00036789 
0.0795045 0.0823287 0.00249985 0.075364 0.0843614 0.0028118 73 157 0 4.60442 -1.58826 -0.229876 0.000376945 
0.102718 0.0824306 0.00299013 0.107583 0.0816951 0.00254241 317 379 0 -0.761184 0.0795951 0.0608054 5.97464e-05 
0.107583 0.0816951 0.00254241 0.111821 0.083385 0.00290449 379 175 0 -5.30283 -1.32064 -0.335624 0.000422628 
0.0219705 0.0839719 0.00277439 0.0201178 0.0881728 0.00289276 106 97 0 1.75699 -4.93674 -0.111824 0.000407257 
0.0569649 0.0828721 0.00304152 0.0584483 0.087277 0.00284009 383 251 0 -1.21014 -4.30631 -0.0361491 0.000347624 
0.0705389 0.0834836 0.00255107 0.075364 0.0843614 0.0028118 263 157 0 -1.22422 0.34568 0.0309789 8.87852e-05 
0.0842945 0.0838602 0.00260335 0.0859713 0.0885489 0.00256391 210 386 0 -0.0111921 -0.273252 -0.00428889 2.03512e-05 
0.111821 0.083385 0.00290449 0.116458 0.0826355 0.00284245 175 91 0 -4.05316 -0.727631 0.0591867 0.000302759 
0.111821 0.083385 0.00290449 0.11091 0.0877186 0.00262833 175 10 0 2.26547 -6.89916 0.357062 0.000563007 
0.116458 0.0826355 0.00284245 0.121275 0.083027 0.00249374 91 280 0 -2.05697 0.824618 0.0967745 0.000154691 
0.116458 0.0826355 0.00284245 0.116047 0.0875813 0.00277321 91 188 0 -0.191181 -0.486397 -0.00875764 3.65458e-05 
0.121275 0.083027 0.00249374 0.121236 0.0879676 0.00262613 280 345 0 -0.315074 -0.740076 -0.00966496 5.74722e-05 
0.0465715 0.0849554 0.00284763 0.0514229 0.0847516 0.00273473 246 39 0 -1.84539 -0.182852 0.0392281 0.000143082 
0.0465715 0.0849554 0.00284763 0.0489623 0.0892227 0.00298503 246 298 0 -0.666979 -1.19569 -0.0385994 0.000106718 
0.0646689 0.0855282 0.0027676 0.0623088 0.0898497 0.00289352 56 388 0 0.54788 -0.78863 -0.0265656 7.44021e-05 
0.125476 0.0861916 0.0027443 0.121236 0.0879676 0.00262613 347 345 0 4.48943 -2.60545 0.10999 0.000401146 
0.0201178 0.0881728 0.00289276 0.0183744 0.0917566 0.00266717 97 262 0 4.88921 -11.9987 0.566525 0.00100818 
0.0317335 0.0893492 0.002765 0.0366386 0.0895917 0.00298462 132 65 0 -1.07635 -0.0532117 -0.0481932 8.4049e-05 
0.0489623 0.0892227 0.00298503 0.0482072 0.094165 0.00298367 298 377 0 0.000732555 -0.00436931 1.73892e-05 3.28561e-07 
0.0542814 0.0888637 0.00272305 0.0584483 0.087277 0.00284009 126 251 0 -6.69877 1.86338 -0.195167 0.000539648 
0.0542814 0.0888637 0.00272305 0.0549414 0.0933806 0.00291516 126 200 0 -0.810206 -5.46982 -0.191858 0.000431067 
0.0584483 0.087277 0.00284009 0.0623088 0.0898497 0.00289352 251 388 0 -2.79171 -4.15497 -0.0305064 0.000360542 
0.0723179 0.0884003 0.00271555 0.0690212 0.0920472 0.00285541 28 172 0 0.704706 -0.779579 -0.029898 8.19116e-05 
0.0859713 0.0885489 0.00256391 0.0893611 0.0915352 0.00262633 386 190 0 -4.34358 -4.42704 -0.0682748 0.000481979 
0.0950964 0.0886571 0.00273782 0.0993702 0.0909594 0.00274577 178 293 0 -1.47828 -1.19277 -0.0160273 0.000145466 
0.0950964 0.0886571 0.00273782 0.0939154 0.0931777 0.00252484 178 22 0 0.529818 -4.14167 0.147896 0.000322853 
0.102689 0.0879241 0.00272101 0.0993702 0.0909594 0.00274577 158 293 0 4.0757 -5.09791 -0.0672594 0.0005024 
0.11091 0.0877186 0.00262833 0.108406 0.0917937 0.00279922 10 122 0 1.32804 -2.40549 -0.0629107 0.000213879 
0.0623088 0.0898497 0.00289352 0.0619657 0.0942862 0.00300576 388 291 0 -1.15995 -7.15592 -0.0534762 0.000548855 
0.0893611 0.0915352 0.00262633 0.0939154 0.0931777 0.00252484 190 22 0 -1.92525 -0.622756 0.0138372 0.000157537 
0.0993702 0.0909594 0.00274577 0.0979278 0.0954258 0.00286716 293 321 0 2.2733 -3.37856 -0.00221291 0.00030486 
0.0183744 0.0917566 0.00266717 0.127097 0.0931453 0.0028591 262 163 1 5.63892 -0.983444 -0.211112 0.000442087 
0.0183744 0.0917566 0.00266717 0.0198303 0.0960723 0.00259439 262 394 0 -1.28927 -5.59028 0.0599198 0.000444849 