ITEM: TIMESTEP
2000
ITEM: NUMBER OF ENTRIES
236
ITEM: BOX BOUNDS pp pp pp
0.011 0.135059
0.011 0.135059
0 0.0055
ITEM: ENTRIES c_3[1] c_3[2] c_3[3] c_3[4] c_3[5] c_3[6] c_3[7] c_3[8] c_3[9] c_3[10] c_3[11] c_3[12] c_3[13] 
0.0646479 0.0131734 0.00253513 0.0695342 0.0135297 0.00297739 35 306 0 -1.01123 -0.346108 -0.0800082 8.07703e-05 
0.0695342 0.0135297 0.00297739 0.0703046 0.0181987 0.00286015 306 68 0 -0.946845 -3.30838 0.0830258 0.000266437 
0.083909 0.0141405 0.00286097 0.0803074 0.0170584 0.00295338 139 171 0 3.97229 -2.51413 -0.0257126 0.000363761 
0.112522 0.0141388 0.00278379 0.109448 0.0177674 0.00292926 412 283 0 2.00454 -2.36575 -0.0949547 0.000241716 
0.127829 0.0132798 0.00258471 0.12368 0.0159202 0.00252887 396 334 0 0.609713 -1.01082 -0.00797646 8.23786e-05 
0.0145788 0.017774 0.00254575 0.018725 0.0158914 0.00272097 47 335 0 -5.38259 1.88803 -0.239165 0.000443076 
0.018725 0.0158914 0.00272097 0.023593 0.0161674 0.00299144 335 244 0 -1.51681 0.351438 -0.0785566 0.00011662 
0.018725 0.0158914 0.00272097 0.0206979 0.0202899 0.00292398 335 401 0 -0.630402 -2.17628 -0.0830386 0.000174945 
0.0703046 0.0181987 0.00286015 0.0657915 0.0195786 0.00271272 68 395 0 3.40181 -1.08763 0.107147 0.000278366 
0.0703046 0.0181987 0.00286015 0.0731891 0.0219017 0.00278105 68 385 0 -2.09293 -3.33796 0.073586 0.000305453 
0.0755968 0.0159624 0.00250964 0.0803074 0.0170584 0.00295338 267 171 0 -1.82262 -0.251341 -0.157923 0.000143299 
0.12368 0.0159202 0.00252887 0.126818 0.019575 0.00274227 334 30 0 -0.896046 -2.24733 -0.0769315 0.00017844 
0.131267 0.017521 0.00277238 0.126818 0.019575 0.00274227 36 30 0 1.19331 -0.46314 0.0223271 9.95499e-05 
0.0206979 0.0202899 0.00292398 0.0167062 0.0231463 0.00264248 401 252 0 0.809537 -0.706574 0.0555754 8.34403e-05 
0.0269336 0.0200555 0.00275046 0.0300482 0.0236831 0.0029965 331 211 0 -1.77299 -2.065 -0.140133 0.000212345 
0.0509178 0.0182504 0.00283814 0.0535395 0.022355 0.00284351 165 49 0 -0.911655 -1.39129 0.000150142 0.00012959 
0.0944956 0.0194462 0.00284492 0.0991553 0.018692 0.00300703 31 373 0 -3.53341 0.409036 -0.0698896 0.000276873 
0.0944956 0.0194462 0.00284492 0.0948898 0.0242936 0.00289264 31 32 0 -0.110369 -1.74624 -0.0162519 0.000136313 
0.0991553 0.018692 0.00300703 0.103826 0.0198487 0.00255924 373 198 0 -2.07786 -0.497652 0.198384 0.000167205 
0.126818 0.019575 0.00274227 0.130149 0.0226835 0.00259307 30 310 0 -4.09918 -3.91074 0.13398 0.000441499 
0.036363 0.0225357 0.00264616 0.0347324 0.0270191 0.00288135 312 141 0 0.979316 -2.69263 -0.141354 0.000223515 
0.0535395 0.022355 0.00284351 0.0580293 0.0240644 0.00254913 49 273 0 -2.23455 -0.856654 0.146241 0.000186808 
0.113613 0.0227472 0.0027521 0.118448 0.0231388 0.00254813 124 24 0 -1.84806 -0.149661 0.0779675 0.00014459 
0.0580293 0.0240644 0.00254913 0.0572338 0.0289339 0.00262612 273 391 0 0.100218 -0.834469 -0.0197952 6.54271e-05 
0.0948898 0.0242936 0.00289264 0.0997853 0.0241866 0.00257359 32 305 0 -1.19037 0.0150247 0.0774275 9.29462e-05 
0.0451037 0.0267406 0.00288392 0.0499371 0.0266884 0.00272409 156 103 0 -2.10244 -0.173472 0.0752721 0.000163761 
0.0499371 0.0266884 0.00272409 0.0494154 0.0313924 0.00259849 103 223 0 0.32076 -3.39204 0.0910569 0.000265537 
0.0240871 0.0296977 0.00288622 0.0222922 0.0340402 0.00295084 339 144 0 2.0528 -3.32797 -0.0174741 0.00030073 
0.0572338 0.0289339 0.00262612 0.0571418 0.033635 0.00301345 391 326 0 0.950362 -3.59763 -0.202432 0.000282062 
0.0755551 0.0287023 0.00275599 0.0732653 0.0330564 0.00253544 276 268 0 0.404277 -0.881147 0.0458015 7.55353e-05 
0.103438 0.0278118 0.00262175 0.101955 0.0323427 0.00286507 257 259 0 0.903075 -2.75984 -0.148332 0.00022655 
0.114152 0.0293028 0.00255626 0.113097 0.0341058 0.00276032 264 58 0 0.149039 -0.994176 -0.0320214 7.82058e-05 
0.114152 0.0293028 0.00255626 0.11838 0.0316816 0.00263112 264 239 0 -1.69384 -0.88352 -0.00852007 0.000148764 
0.128903 0.0276583 0.00252283 0.132921 0.0302445 0.00275709 66 376 0 -2.33266 -1.50166 -0.137523 0.000216436 
0.0411333 0.0306135 0.00300071 0.043977 0.0343561 0.00267074 351 70 0 -2.24232 -2.92861 0.247106 0.000288021 
0.0494154 0.0313924 0.00259849 0.0526465 0.0347997 0.00259805 223 9 0 -2.54629 -2.96803 -0.0392392 0.000304298 
0.0810731 0.030365 0.0029813 0.0778898 0.0341058 0.00266026 215 206 0 0.482919 -0.895048 0.0616642 7.76413e-05 
0.107203 0.0314019 0.00265196 0.108104 0.0360556 0.00285568 261 369 0 -0.622459 -3.21459 -0.140833 0.000255356 
0.11838 0.0316816 0.00263112 0.118509 0.0365294 0.00257681 239 400 0 -0.0854452 -1.92567 0.0203612 0.000150191 
0.124062 0.0301736 0.00272763 0.122819 0.0346929 0.00260911 234 367 0 1.34298 -3.77057 0.0978084 0.000311112 
0.0175526 0.0332408 0.00268098 0.0222922 0.0340402 0.00295084 130 144 0 -2.40279 -0.0812774 -0.128055 0.000185945 
0.0222922 0.0340402 0.00295084 0.0272249 0.0342342 0.0027232 144 115 0 -0.74224 -0.147177 0.0192831 5.82252e-05 
0.0272249 0.0342342 0.0027232 0.0318343 0.0344783 0.00299127 115 387 0 -4.86335 0.531828 -0.171796 0.000376347 
0.0272249 0.0342342 0.0027232 0.0283134 0.0389172 0.0029122 115 111 0 -0.314071 -2.40768 -0.0899955 0.000188414 
0.0318343 0.0344783 0.00299127 0.0363081 0.0327274 0.0025073 387 256 0 -2.07602 0.708416 0.194453 0.00017142 
0.043977 0.0343561 0.00267074 0.0469785 0.0379418 0.00255374 70 403 0 -2.71453 -3.12168 0.0968072 0.000322354 
0.0571418 0.033635 0.00301345 0.0526465 0.0347997 0.00259805 326 9 0 3.85029 -2.39425 0.265947 0.000337713 
0.0732653 0.0330564 0.00253544 0.0778898 0.0341058 0.00266026 268 206 0 -3.0396 -1.4712 -0.0624639 0.000256356 
0.0778898 0.0341058 0.00266026 0.0814534 0.0374874 0.0027175 206 94 0 -0.825655 -0.750685 -0.014558 8.69557e-05 
0.0891327 0.0326235 0.0025537 0.0940282 0.0327791 0.00289816 362 109 0 -1.1501 -0.036392 -0.0809106 8.98752e-05 
0.0891327 0.0326235 0.0025537 0.0884133 0.0375183 0.00295766 362 363 0 0.0722768 -0.457278 -0.0356726 3.61732e-05 
0.113097 0.0341058 0.00276032 0.114401 0.0385291 0.00255661 58 102 0 -1.39634 -4.72608 0.161005 0.000384143 
0.122819 0.0346929 0.00260911 0.118509 0.0365294 0.00257681 367 400 0 3.93572 -1.09582 0.0243607 0.000315585 
0.128177 0.0333975 0.00268362 0.132503 0.0354227 0.00276802 63 354 0 -2.58883 -1.21201 -0.0505443 0.000222757 
0.0526465 0.0347997 0.00259805 0.0513286 0.0394077 0.00272039 9 258 0 1.30125 -2.37466 0.00874199 0.000205698 
0.108104 0.0360556 0.00285568 0.10864 0.0407853 0.00299643 369 384 0 -0.111787 -3.06236 -0.0610479 0.000238088 
0.118509 0.0365294 0.00257681 0.114401 0.0385291 0.00255661 400 102 0 4.74134 -2.89003 0.0249645 0.000430717 
0.0469785 0.0379418 0.00255374 0.0513286 0.0394077 0.00272039 403 258 0 -5.21911 -0.846909 -0.158724 0.000406599 
0.0513286 0.0394077 0.00272039 0.0559236 0.0404283 0.00290564 258 72 0 -3.42664 -1.68168 -0.16395 0.000289329 
0.0884133 0.0375183 0.00295766 0.0866287 0.0419826 0.00254552 363 311 0 0.827866 -2.07301 0.191208 0.000174559 
0.114401 0.0385291 0.00255661 0.113135 0.0430701 0.00291424 102 176 0 1.15496 -3.29946 -0.226022 0.000272337 
0.0226471 0.0398817 0.00262177 0.0246895 0.0442489 0.00265622 399 353 0 -0.966556 -2.07972 -0.01972 0.000178688 
0.0347777 0.041558 0.00262622 0.0353252 0.0462582 0.00294459 243 342 0 -0.0922824 -3.3114 -0.154711 0.000257348 
0.075757 0.0403795 0.00252253 0.0720275 0.0431619 0.00263934 17 382 0 3.4298 -2.81548 -0.0892267 0.000345425 
0.0866287 0.0419826 0.00254552 0.0886502 0.0464414 0.00297539 311 113 0 -0.628969 -0.918139 -0.0720591 8.55452e-05 
0.10864 0.0407853 0.00299643 0.106176 0.044664 0.00272274 384 85 0 2.19654 -4.63104 0.234104 0.000396728 
0.124675 0.0395813 0.00259833 0.129397 0.040162 0.00264623 75 338 0 -3.11264 -0.22139 -0.0184631 0.000242828 
0.124675 0.0395813 0.00259833 0.125956 0.0441624 0.00298789 75 195 0 -0.52531 -2.87287 -0.244814 0.000227405 
0.0246895 0.0442489 0.00265622 0.0263426 0.0486862 0.00290549 353 93 0 -1.13713 -3.10914 -0.168195 0.000258267 
0.0720275 0.0431619 0.00263934 0.0696176 0.0472911 0.00254183 382 96 0 1.51061 -2.35843 0.0460322 0.000218071 
0.0979403 0.0430831 0.00264372 0.0932842 0.0446807 0.00270567 358 213 0 0.934738 -0.32535 -0.0174089 7.7111e-05 
0.0300196 0.0456889 0.00281077 0.0263426 0.0486862 0.00290549 356 93 0 2.51785 -2.09542 -0.061755 0.000255259 
0.0353252 0.0462582 0.00294459 0.0398434 0.0473681 0.00252293 342 6 0 -3.93425 -1.61043 0.292281 0.000328338 
0.0353252 0.0462582 0.00294459 0.0331718 0.0503789 0.00287216 342 212 0 1.74577 -4.15621 -0.000837454 0.000349973 
0.0517751 0.0447063 0.00297731 0.0540631 0.0488916 0.00269683 392 325 0 -2.29289 -1.98574 0.169416 0.000221851 
0.0576991 0.0459552 0.00276302 0.0620969 0.0445647 0.00250697 64 217 0 -4.81199 0.976695 0.158594 0.000380534 
0.0576991 0.0459552 0.00276302 0.0540631 0.0488916 0.00269683 64 325 0 3.59359 -2.20752 -0.0157768 0.000325859 
0.0620969 0.0445647 0.00250697 0.0651726 0.0482296 0.00269603 217 349 0 -2.64168 -1.33252 -0.0338846 0.0002118 
0.0886502 0.0464414 0.00297539 0.0932842 0.0446807 0.00270567 113 213 0 -0.367287 0.309661 0.0156915 3.53601e-05 
0.0886502 0.0464414 0.00297539 0.0900675 0.0509496 0.00258465 113 224 0 -0.250847 -3.38543 0.230466 0.000258103 
0.106176 0.044664 0.00272274 0.107284 0.0493171 0.00293151 85 152 0 -0.198197 -2.75156 -0.0580558 0.000212135 
0.118159 0.0453202 0.00273969 0.117079 0.0499625 0.00279775 201 136 0 0.67862 -2.9169 -0.0367877 0.000233373 
0.0263426 0.0486862 0.00290549 0.0252291 0.0532609 0.00296983 93 199 0 0.890217 -3.63049 -0.0550321 0.00029128 
0.0398434 0.0473681 0.00252293 0.0380564 0.0518359 0.00259803 6 38 0 0.715317 -2.30494 -0.0259958 0.000187471 
0.0651726 0.0482296 0.00269603 0.0696176 0.0472911 0.00254183 349 96 0 -5.78768 0.812033 0.127661 0.000454351 
0.0696176 0.0472911 0.00254183 0.0712732 0.0517694 0.00283077 96 322 0 -0.817361 -2.65991 -0.141236 0.000216731 
0.0759152 0.0490504 0.00262877 0.0758455 0.0537854 0.00250084 11 410 0 0.0485954 -3.37041 0.0901246 0.000262733 
0.0991438 0.0488924 0.00295044 0.0972771 0.0534399 0.00275804 53 308 0 0.328951 -0.98117 0.0378557 8.0503e-05 
0.107284 0.0493171 0.00293151 0.10772 0.0538323 0.0028498 152 315 0 -0.627386 -5.90957 0.0609251 0.000463015 
0.0331718 0.0503789 0.00287216 0.0319511 0.0552184 0.00280216 212 37 0 0.0307291 -0.103867 0.00159158 8.41632e-06 
0.0380564 0.0518359 0.00259803 0.0380272 0.0565354 0.00266654 38 182 0 0.333194 -3.84741 -0.0432765 0.000299919 
0.0431654 0.0523005 0.00298097 0.0479177 0.0518913 0.00265993 229 202 0 -2.84892 -0.328856 0.169769 0.000219367 
0.0479177 0.0518913 0.00265993 0.0519 0.0543917 0.00253285 202 343 0 -3.51918 -1.53779 0.143849 0.000296143 
0.0758455 0.0537854 0.00250084 0.0767297 0.0585024 0.00270363 410 161 0 -0.892769 -2.39681 -0.114058 0.000196558 
0.0972771 0.0534399 0.00275804 0.0995862 0.0575804 0.00278306 308 18 0 -1.61871 -2.90402 -0.0175272 0.000259054 
0.102917 0.0539128 0.00281988 0.10772 0.0538323 0.0028498 154 315 0 -2.5227 0.27166 -0.0178249 0.00019689 
0.102917 0.0539128 0.00281988 0.0995862 0.0575804 0.00278306 154 18 0 0.4484 -0.376728 0.00481599 4.5219e-05 
0.0519 0.0543917 0.00253285 0.0568406 0.0540765 0.00264089 343 88 0 -0.620778 -0.0338243 -0.00915218 4.80886e-05 
0.0568406 0.0540765 0.00264089 0.0573217 0.0588848 0.00299335 88 227 0 -0.197401 -1.9719 -0.144567 0.000154818 
0.0153886 0.0582609 0.0026999 0.0200881 0.0589072 0.00250354 307 117 0 -3.2044 -0.440743 0.134112 0.000252244 
0.0380272 0.0565354 0.00266654 0.0428761 0.0573149 0.00294006 182 413 0 -1.04632 -0.0467954 -0.0584746 8.11929e-05 
0.0380272 0.0565354 0.00266654 0.0356266 0.060545 0.00254909 182 411 0 1.48313 -3.97734 0.0574037 0.000325262 
0.0767297 0.0585024 0.00270363 0.0816641 0.0579551 0.00292345 161 365 0 -0.389774 0.0184147 -0.0219728 3.04146e-05 
0.0876795 0.0576793 0.0028968 0.0894195 0.0620853 0.00269157 316 142 0 -1.20482 -3.08661 0.143179 0.000258414 
0.026166 0.0588873 0.00264882 0.0259782 0.0637287 0.00286702 180 269 0 0.0745536 -1.92201 -0.0889337 0.000150048 
0.0356266 0.060545 0.00254909 0.0310534 0.0619067 0.00255823 411 289 0 2.86872 -0.63475 0.0215608 0.000228318 
0.0356266 0.060545 0.00254909 0.0386672 0.064336 0.00280435 411 5 0 -0.696135 -1.63703 -0.0691094 0.000133552 
0.0680183 0.0600631 0.00301032 0.0682426 0.0647031 0.00277447 245 303 0 -1.07652 -4.41913 0.274322 0.000348612 
0.122226 0.0591172 0.00250303 0.119497 0.0629781 0.00283584 355 87 0 1.29354 -3.1754 -0.184516 0.000260588 
0.0726824 0.0626557 0.00249322 0.0682426 0.0647031 0.00277447 314 303 0 1.0936 -0.769896 -0.0826833 0.000102722 
0.0894195 0.0620853 0.00269157 0.0855392 0.0649895 0.00297341 142 149 0 1.35741 -1.2882 -0.0959681 0.000145003 
0.112875 0.0613293 0.00296472 0.111029 0.0656475 0.00290453 324 296 0 1.02006 -3.79829 0.0666645 0.00030341 
0.119497 0.0629781 0.00283584 0.123376 0.066043 0.00250668 87 228 0 -0.355048 -0.501343 0.0322744 4.60148e-05 
0.0386672 0.064336 0.00280435 0.0428886 0.0665222 0.00269816 5 131 0 -2.71046 -1.60351 0.0402285 0.00024498 
0.051047 0.0642259 0.00252491 0.0484265 0.068216 0.00259772 137 207 0 1.43353 -2.52495 -0.0527666 0.000225805 
0.0682426 0.0647031 0.00277447 0.0699753 0.0691107 0.00255599 303 110 0 -0.307385 -3.44872 0.11506 0.000258989 
0.0855392 0.0649895 0.00297341 0.0896655 0.0674991 0.00273722 149 405 0 -1.74025 -1.20214 0.107164 0.000164733 
0.102134 0.0649322 0.00272834 0.106631 0.0669442 0.00258938 378 128 0 -0.859625 -0.323592 0.0183312 7.14395e-05 
0.111029 0.0656475 0.00290453 0.106631 0.0669442 0.00258938 296 128 0 5.03089 -1.21441 0.310906 0.000403446 
0.111029 0.0656475 0.00290453 0.115307 0.0678384 0.00284393 296 372 0 -2.12735 -1.30849 0.0216763 0.000194026 
0.0315362 0.0674021 0.00294747 0.030353 0.0719237 0.00259102 277 320 0 0.403577 -4.03287 0.258917 0.000312587 
0.0484265 0.068216 0.00259772 0.0529311 0.0697651 0.00278645 207 254 0 -2.68637 -1.36343 -0.128722 0.000232701 
0.0484265 0.068216 0.00259772 0.0459187 0.0724134 0.0029502 207 27 0 0.692223 -1.04647 -0.0789713 9.78338e-05 
0.076772 0.066739 0.00250149 0.0791263 0.0708607 0.00256149 108 290 0 -1.61015 -2.81881 -0.0411069 0.000252959 
0.0896655 0.0674991 0.00273722 0.0858152 0.0702886 0.00264669 405 226 0 2.52186 -1.8675 0.0614648 0.000244539 
0.0858152 0.0702886 0.00264669 0.0854223 0.0751433 0.00262156 226 408 0 0.473544 -1.62805 -0.000631971 0.000129403 
0.127584 0.070464 0.00272999 0.124598 0.0741779 0.00254783 23 350 0 1.86053 -2.31469 0.114506 0.000231575 
0.0152538 0.071498 0.0029027 0.0160431 0.0762336 0.00297591 360 332 0 -0.483504 -2.50235 -0.0116937 0.000198514 
0.030353 0.0719237 0.00259102 0.0342297 0.0747447 0.00281547 320 404 0 -1.84092 -1.83723 -0.0820829 0.000200303 
0.0381341 0.0718658 0.00276842 0.0342297 0.0747447 0.00281547 390 404 0 1.95999 -0.558507 -0.000271937 0.000148726 
0.0381341 0.0718658 0.00276842 0.040742 0.0758903 0.00281239 390 99 0 -1.63551 -2.06271 -0.0220795 0.000204194 
0.0459187 0.0724134 0.0029502 0.0451498 0.0772121 0.00281331 27 16 0 0.517135 -1.71135 0.0517514 0.000138096 
0.0589385 0.0718486 0.00275265 0.0549777 0.0748288 0.00289966 194 79 0 0.405553 -0.338151 -0.0142138 4.10918e-05 
0.0983967 0.0707748 0.00293154 0.10179 0.0742282 0.00286872 169 352 0 -1.09539 -1.77095 0.0513835 0.000158296 
0.108314 0.0717626 0.00270157 0.113161 0.0724753 0.00285173 236 366 0 -1.25416 -0.184364 -0.0294657 9.87807e-05 
0.108314 0.0717626 0.00270157 0.106754 0.0763487 0.0027955 236 204 0 0.641824 -1.88212 -0.0385185 0.000154966 
0.113161 0.0724753 0.00285173 0.11777 0.0736431 0.00266092 366 205 0 -2.99298 -0.758042 0.124651 0.000240771 
0.0549777 0.0748288 0.00289966 0.0523735 0.0790572 0.00294143 79 221 0 0.0886807 -0.453765 0.00809725 3.37478e-05 
0.0854223 0.0751433 0.00262156 0.0806037 0.0760842 0.00280303 408 3 0 1.09485 -0.219918 -0.0437669 8.70991e-05 
0.10179 0.0742282 0.00286872 0.101874 0.0788421 0.00265007 352 15 0 -0.60585 -4.86382 0.213295 0.000380133 
0.0160431 0.0762336 0.00297591 0.0176096 0.0803254 0.00264607 332 55 0 -2.3052 -7.43405 0.45974 0.000606116 
0.040742 0.0758903 0.00281239 0.0451498 0.0772121 0.00281331 99 16 0 -4.77112 -1.88498 -0.0074447 0.000398264 
0.0614869 0.0774577 0.0027365 0.0571469 0.0796639 0.00257548 270 143 0 1.46916 -0.756357 0.0444029 0.000128785 
0.0973429 0.0772828 0.00272431 0.0934597 0.0799943 0.00288492 248 185 0 2.78343 -1.86337 -0.1138 0.000261093 
0.0973429 0.0772828 0.00272431 0.101874 0.0788421 0.00265007 248 15 0 -2.75989 -0.183565 0.0321933 0.000208004 
0.0523735 0.0790572 0.00294143 0.0571469 0.0796639 0.00257548 221 143 0 -2.11095 -1.07533 0.183259 0.000174316 
0.0571469 0.0796639 0.00257548 0.0557716 0.0840991 0.00299615 143 383 0 0.760923 -4.28803 -0.308124 0.000337449 
0.0700147 0.0790481 0.00256489 0.0748247 0.0795579 0.00291191 20 344 0 -1.91793 -0.193359 -0.140543 0.00015061 
0.0700147 0.0790481 0.00256489 0.0656293 0.080944 0.00262512 20 61 0 2.68713 -0.962546 -0.00681879 0.000221915 
0.117069 0.0795405 0.00284412 0.116031 0.0842097 0.00288422 129 175 0 0.420331 -2.75486 -0.0200571 0.000216661 
0.0176096 0.0803254 0.00264607 0.0169139 0.0847897 0.00277019 55 106 0 0.998357 -6.07936 -0.135294 0.000480111 
0.0224822 0.0815331 0.00281264 0.0263726 0.0845888 0.00258829 184 284 0 -0.483347 -0.379652 0.0278744 4.79367e-05 
0.0169139 0.0847897 0.00277019 0.0151238 0.0892093 0.0028715 106 97 0 0.939868 -2.81181 -0.0685889 0.000230623 
0.0557716 0.0840991 0.00299615 0.0571692 0.0886048 0.00285445 383 251 0 -1.54177 -3.28941 0.0709548 0.000280429 
0.0707491 0.084559 0.00256811 0.0754945 0.0852744 0.00277825 263 157 0 -2.49511 -0.33885 -0.105844 0.00019636 
0.0797787 0.0833646 0.00251635 0.0754945 0.0852744 0.00277825 73 157 0 3.64189 -1.34589 -0.17529 0.000302152 
0.116031 0.0842097 0.00288422 0.120659 0.0838841 0.00282282 175 91 0 -4.65964 -0.395648 0.0891483 0.000360055 
0.116031 0.0842097 0.00288422 0.114654 0.0889734 0.00263632 175 10 0 0.143922 -0.427704 0.0189855 3.51455e-05 
0.120659 0.0838841 0.00282282 0.125454 0.0840364 0.00252181 91 280 0 -2.48463 0.305686 0.14596 0.000193085 
0.120659 0.0838841 0.00282282 0.120312 0.0886022 0.00277308 91 188 0 0.76209 -3.40398 -0.0012012 0.00026886 
0.131987 0.0825374 0.0026891 0.130648 0.0871129 0.00273939 181 347 0 0.837085 -2.85944 -0.0316949 0.000232173 
0.0495602 0.0862202 0.00273434 0.0523675 0.0900808 0.00272854 39 126 0 -1.71074 -2.35266 0.00357163 0.000226663 
0.0855569 0.0852259 0.00260071 0.087151 0.0897312 0.00256735 210 386 0 -0.945846 -2.67318 0.0199979 0.000220957 
0.0571692 0.0886048 0.00285445 0.0607902 0.0915275 0.00289945 251 388 0 -2.94158 -3.4333 -0.0136544 0.000346366 
0.0607902 0.0915275 0.00289945 0.060814 0.0960835 0.00297412 388 291 0 -0.832967 -5.68587 -0.0902586 0.000443402 
0.0972196 0.090302 0.00273325 0.0961047 0.0951143 0.00253722 178 22 0 0.160236 -0.703653 0.0284355 5.62709e-05 
0.0131657 0.0938919 0.00267495 0.0144862 0.0983188 0.00261932 262 394 0 -1.20614 -4.72867 0.0295263 0.000379922 
0.101954 0.0934076 0.00275518 0.100309 0.0976298 0.00283573 293 321 0 2.3246 -5.54037 -0.063762 0.00046799 
0.101954 0.0934076 0.00275518 0.105682 0.0963765 0.00282135 293 340 0 -2.53577 -1.63185 -0.0404082 0.000233791 
0.0456243 0.0964064 0.0029651 0.0423722 0.100006 0.00248652 377 57 0 1.08087 -1.18551 0.115935 0.000125264 
0.060814 0.0960835 0.00297412 0.0611243 0.100855 0.00264095 291 406 0 -0.180675 -2.64317 0.146173 0.00020669 
0.0961047 0.0951143 0.00253722 0.100309 0.0976298 0.00283573 22 321 0 -0.934073 -0.733611 -0.0575108 9.18999e-05 
0.118596 0.0960577 0.00265525 0.123387 0.0956753 0.00261105 237 86 0 -2.46752 0.297776 0.00499359 0.000193473 
0.118596 0.0960577 0.00265525 0.119127 0.100823 0.00300623 237 170 0 -0.263341 -2.45083 -0.183123 0.000192602 
0.123387 0.0956753 0.00261105 0.127769 0.0973642 0.00304002 86 397 0 -3.19788 -1.81058 -0.226604 0.00028367 
0.0144862 0.0983188 0.00261932 0.0139926 0.103025 0.00285319 394 304 0 0.262109 -3.35568 -0.15485 0.000262449 
0.0221003 0.0974557 0.00270088 0.0266455 0.0988191 0.00256733 135 337 0 -3.10616 -0.931709 0.0917298 0.000252783 
0.0377516 0.0989779 0.00272335 0.0423722 0.100006 0.00248652 285 57 0 -3.11997 -1.35538 0.11303 0.000260357 
0.0731661 0.097841 0.00297576 0.0687247 0.0996692 0.00264016 370 281 0 2.20347 -0.879153 0.167761 0.000185314 
0.0731661 0.097841 0.00297576 0.0731323 0.102673 0.00269603 370 409 0 -0.454951 -2.04972 0.090201 0.00015959 
0.100309 0.0976298 0.00283573 0.096323 0.100289 0.00266405 321 313 0 2.4403 -1.09871 0.077286 0.000205776 
0.100309 0.0976298 0.00283573 0.102395 0.101906 0.0027696 321 282 0 -1.81741 -2.55994 0.0142737 0.000241358 
0.127769 0.0973642 0.00304002 0.130058 0.101487 0.00272655 397 231 0 -2.17638 -2.8109 0.124393 0.000273842 
0.0423722 0.100006 0.00248652 0.0421785 0.104767 0.00287407 57 1 0 -0.259649 -2.82333 -0.18383 0.00021943 
0.0520628 0.101635 0.00289696 0.0490139 0.105199 0.0029175 34 292 0 2.53825 -3.0524 -0.0209767 0.00030928 
0.0611243 0.100855 0.00264095 0.0568855 0.102954 0.00264348 406 230 0 3.30069 -1.142 0.0123903 0.000269952 
0.0611243 0.100855 0.00264095 0.0637783 0.104753 0.00279268 406 133 0 -2.18812 -2.88936 -0.114548 0.000282186 
0.119127 0.100823 0.00300623 0.117903 0.105547 0.0029723 170 295 0 0.398596 -1.47683 0.00734172 0.000119161 
0.0731323 0.102673 0.00269603 0.0758771 0.106532 0.00275367 409 14 0 -1.95443 -2.77289 -0.0398156 0.000264346 
0.0865324 0.101699 0.00280147 0.0913517 0.101913 0.00257061 112 168 0 -2.18264 -0.097089 0.10458 0.000170423 
0.102395 0.101906 0.0027696 0.106738 0.103771 0.00267966 282 381 0 -3.09244 -1.6633 0.0660834 0.000272574 
0.106738 0.103771 0.00267966 0.105436 0.108541 0.00252847 381 60 0 0.150491 -0.663339 0.0211567 5.29718e-05 
0.0421785 0.104767 0.00287407 0.0380429 0.106979 0.00262843 1 150 0 3.00571 -2.63117 0.159438 0.000303437 
0.0490139 0.105199 0.0029175 0.0466103 0.109219 0.00299313 292 330 0 2.06412 -3.48822 -0.0537953 0.000315829 
0.0637783 0.104753 0.00279268 0.0684395 0.104722 0.00290143 133 147 0 -4.33595 -1.0188 -0.106357 0.0003374 
0.0637783 0.104753 0.00279268 0.061263 0.108722 0.00278201 133 333 0 1.79021 -3.43083 -0.0029127 0.000300455 
0.0684395 0.104722 0.00290143 0.0685558 0.109685 0.00289452 147 374 0 -0.208601 -0.44534 -0.00395812 3.50944e-05 
0.117903 0.105547 0.0029723 0.114035 0.108269 0.00256876 295 336 0 2.64024 -1.87825 0.276341 0.000253382 
0.0380429 0.106979 0.00262843 0.0410185 0.110697 0.00251239 150 371 0 -1.75913 -2.48396 0.0816582 0.000236846 
0.0993366 0.107491 0.00262323 0.0975629 0.111954 0.00291291 328 44 0 0.890328 -2.24045 -0.14779 0.000188215 
0.114035 0.108269 0.00256876 0.114915 0.113014 0.00281334 336 220 0 -0.258354 -2.14841 -0.0864457 0.000168379 
0.128611 0.108026 0.00298354 0.132632 0.110792 0.00277136 208 189 0 -1.21199 -0.833747 0.0666407 0.00011476 
0.0466103 0.109219 0.00299313 0.0451451 0.113641 0.00273998 330 164 0 1.42264 -4.05778 0.21107 0.000335376 
0.031243 0.11193 0.00252711 0.0360023 0.111818 0.00280493 42 138 0 -2.96271 0.0694242 -0.173102 0.0002313 
0.109257 0.112724 0.00254864 0.109662 0.117439 0.00298598 233 177 0 -0.27166 -3.15751 -0.293352 0.000247987 
0.114915 0.113014 0.00281334 0.11966 0.112496 0.00286955 220 357 0 -2.88699 0.301519 -0.0347463 0.00022618 
0.0451451 0.113641 0.00273998 0.0447354 0.118583 0.00268984 164 407 0 0.124485 -0.508768 0.00597218 4.03004e-05 
0.0568305 0.114963 0.00291743 0.0601674 0.118237 0.00273432 153 151 0 -2.76839 -3.0668 0.152638 0.000321525 
0.0281882 0.116718 0.00251886 0.0258673 0.120923 0.00271291 278 2 0 1.19613 -2.16715 -0.100043 0.000193024 
0.0399382 0.119043 0.0027405 0.0447354 0.118583 0.00268984 81 407 0 -2.30591 0.221066 0.0247928 0.000180519 
0.0601674 0.118237 0.00273432 0.0614647 0.122867 0.00265538 151 148 0 -0.701556 -2.35226 0.0430171 0.000191274 
0.0793161 0.118386 0.00283721 0.0838736 0.119993 0.00300383 318 402 0 -1.91835 -0.91238 -0.0548819 0.00016465 
0.0838736 0.119993 0.00300383 0.0887622 0.11909 0.00280598 402 159 0 -0.306313 0.085223 0.00893117 2.46788e-05 
0.0838736 0.119993 0.00300383 0.0826212 0.124552 0.00261929 402 52 0 0.848093 -3.17645 0.267543 0.000257013 
0.0945557 0.119971 0.0026761 0.0924899 0.124188 0.00278632 114 13 0 1.92652 -3.39254 -0.0516573 0.000303411 
0.0747432 0.121353 0.00259755 0.0757216 0.125909 0.00258756 414 300 0 -1.40849 -4.16572 0.0140171 0.000340394 
0.110149 0.12242 0.0026629 0.114661 0.120911 0.00265727 272 380 0 -2.94637 0.985536 0.00370177 0.000242083 
0.0331142 0.124064 0.00268206 0.0354758 0.127997 0.00253717 249 241 0 -3.01449 -4.32487 0.120362 0.000409901 
0.0924899 0.124188 0.00278632 0.0879673 0.125848 0.00254227 13 398 0 2.19309 -0.579836 0.105597 0.000176187 
0.0924899 0.124188 0.00278632 0.0919215 0.128938 0.00253404 13 119 0 -0.17842 -2.7264 0.124533 0.000209502 
0.0243005 0.12667 0.00297344 0.0273691 0.130081 0.00278571 67 389 0 -3.87931 -3.54299 0.235699 0.000407793 
0.039894 0.126287 0.00250873 0.0354758 0.127997 0.00253717 118 241 0 3.0686 -1.38555 -0.0615571 0.000261973 
0.0709387 0.125992 0.00288799 0.0757216 0.125909 0.00258756 127 300 0 -2.64884 0.149976 0.154009 0.000206893 
0.0757216 0.125909 0.00258756 0.0794888 0.128798 0.00254417 300 348 0 -2.29028 -2.33786 0.0276107 0.000252471 
0.0978091 0.127782 0.0028649 0.1025 0.12806 0.00248437 146 74 0 -3.60902 -0.986259 0.212328 0.000285666 
0.0273691 0.130081 0.00278571 0.0320554 0.130878 0.00249387 389 232 0 -2.98577 -0.592128 0.171281 0.000237458 
0.0354758 0.127997 0.00253717 0.0320554 0.130878 0.00249387 241 232 0 5.7487 -3.69467 0.0494716 0.000528036 
0.0354758 0.127997 0.00253717 0.0384248 0.131698 0.00272088 241 364 0 -1.8817 -2.83291 -0.100061 0.000264107 
0.056366 0.129039 0.00250989 0.0515899 0.130302 0.00263117 59 346 0 0.72383 -0.191334 -0.0183795 5.8351e-05 
0.0794888 0.128798 0.00254417 0.0761776 0.132472 0.00250854 348 80 0 0.303742 -0.657158 0.00690705 5.38808e-05 
0.0794888 0.128798 0.00254417 0.0828787 0.132246 0.00268954 348 192 0 -1.59661 -1.35492 -0.0513642 0.000162515 
0.0919215 0.128938 0.00253404 0.0875837 0.131259 0.0027229 119 359 0 0.860403 -0.470124 -0.0294617 7.64066e-05 
0.1025 0.12806 0.00248437 0.103108 0.13296 0.00298367 74 155 0 -0.236772 -0.44759 -0.0388712 3.70234e-05 
0.110354 0.129764 0.00273389 0.114908 0.131069 0.00292518 105 76 0 -3.18948 -0.913735 -0.134437 0.000258727 
0.0134933 0.130921 0.00282804 0.0181021 0.132015 0.0024932 375 82 0 -3.13004 -0.742937 0.228577 0.000251297 
0.0828787 0.132246 0.00268954 0.0875837 0.131259 0.0027229 192 359 0 -2.41898 0.50433 -0.0174821 0.000192551 
