ITEM: TIMESTEP
3500
ITEM: NUMBER OF ENTRIES
446
ITEM: BOX BOUNDS pp pp pp
0.01925 0.126809
0.01925 0.126809
0 0.0055
ITEM: ENTRIES c_3[1] c_3[2] c_3[3] c_3[4] c_3[5] c_3[6] c_3[7] c_3[8] c_3[9] c_3[10] c_3[11] c_3[12] c_3[13] 
0.0506443 0.0215347 0.00297816 0.0536217 0.0251915 0.00283923 26 165 0 -2.2095 -2.87217 0.0855136 0.000282283 
0.0653868 0.0210041 0.00250213 0.070122 0.0205842 0.0030342 35 306 0 -2.87843 -1.13579 -0.264114 0.000216558 
0.070122 0.0205842 0.0030342 0.0708545 0.0254581 0.00287867 306 68 0 -0.562428 -0.811076 -0.0267458 6.89258e-05 
0.0914198 0.0211854 0.00249389 0.0871999 0.0231814 0.00286859 309 98 0 3.66161 -1.74162 -0.308106 0.000316838 
0.120954 0.0208492 0.00258717 0.12374 0.024794 0.00277825 396 36 0 -1.20105 -1.77176 -0.0770773 0.000166853 
0.0259692 0.0228847 0.00270894 0.0306801 0.0233813 0.00304767 335 244 0 -3.23301 -0.0794005 -0.0809766 0.000250976 
0.0306801 0.0233813 0.00304767 0.028 0.0274524 0.00295725 244 401 0 1.55044 -0.900863 0.0369605 0.000125098 
0.0306801 0.0233813 0.00304767 0.0330211 0.0270241 0.00270913 244 331 0 -5.55171 -6.44093 0.412731 0.00065656 
0.0746907 0.0234229 0.00244944 0.0708545 0.0254581 0.00287867 267 68 0 7.67806 -2.92093 -0.542689 0.000636189 
0.0746907 0.0234229 0.00244944 0.0793315 0.0249967 0.00301302 267 171 0 -0.954703 0.125874 -0.0488518 6.72988e-05 
0.0830534 0.0215975 0.00285879 0.0871999 0.0231814 0.00286859 139 98 0 -7.26401 -1.17476 0.0527542 0.000561344 
0.0871999 0.0231814 0.00286859 0.0909977 0.0263005 0.00282853 98 31 0 -0.870674 -0.666202 -0.0103949 8.53337e-05 
0.0871999 0.0231814 0.00286859 0.0867705 0.0278231 0.00278775 98 225 0 0.580055 -4.29996 0.0321581 0.000337764 
0.100955 0.0222712 0.00261786 0.0991858 0.125521 0.00303923 247 155 1 1.48029 3.8527 -0.264866 0.000322019 
0.100955 0.0222712 0.00261786 0.104399 0.0254901 0.00295136 247 283 0 -3.18736 -1.73088 -0.214631 0.000274031 
0.100955 0.0222712 0.00261786 0.100303 0.027076 0.00250064 247 198 0 1.15855 -1.78234 0.00168438 0.000149715 
0.107574 0.0216137 0.00276829 0.11152 0.0245462 0.00285868 412 29 0 -1.00413 -0.430541 -0.0109001 8.2803e-05 
0.116114 0.023187 0.00249801 0.11152 0.0245462 0.00285868 334 29 0 2.4847 -0.414729 -0.140702 0.00019506 
0.116114 0.023187 0.00249801 0.119201 0.0268517 0.00278762 334 30 0 -2.27953 -1.44304 -0.0196627 0.000200152 
0.0536217 0.0251915 0.00283923 0.0560097 0.0291503 0.00287537 165 49 0 -2.89503 -3.89942 0.0662846 0.000376625 
0.0708545 0.0254581 0.00287867 0.0661771 0.026869 0.00269307 68 395 0 1.37801 -0.360232 0.0144396 0.000110888 
0.0909977 0.0263005 0.00282853 0.0957301 0.0256927 0.00307788 31 373 0 -2.74665 1.01738 -0.0230367 0.000222177 
0.0909977 0.0263005 0.00282853 0.0867705 0.0278231 0.00278775 31 225 0 6.42985 -1.34132 0.123269 0.000506803 
0.0909977 0.0263005 0.00282853 0.0916733 0.0311215 0.00291723 31 32 0 0.165547 -1.72268 0.0658406 0.000131044 
0.0957301 0.0256927 0.00307788 0.100303 0.027076 0.00250064 373 198 0 -2.54513 0.0446972 0.0499253 0.000187907 
0.0957301 0.0256927 0.00307788 0.0963854 0.0305257 0.00254856 373 305 0 -0.29252 -1.17877 0.0777518 9.41708e-05 
0.104399 0.0254901 0.00295136 0.100303 0.027076 0.00250064 283 198 0 7.02987 -2.57877 0.511863 0.000584335 
0.12374 0.024794 0.00277825 0.119201 0.0268517 0.00278762 36 30 0 0.145995 -0.175326 0.00240114 1.60263e-05 
0.12374 0.024794 0.00277825 0.12323 0.0297104 0.00257454 36 310 0 0.401316 -0.642161 0.0266425 5.30338e-05 
0.028 0.0274524 0.00295725 0.0239254 0.0298542 0.00261388 401 252 0 2.16521 -2.83665 0.149207 0.000257752 
0.0330211 0.0270241 0.00270913 0.0360615 0.0305935 0.00302206 331 211 0 -2.36935 -3.05513 -0.102187 0.000300785 
0.119201 0.0268517 0.00278762 0.116947 0.0311677 0.00261114 30 329 0 0.725604 -1.47241 0.025283 0.000127815 
0.119201 0.0268517 0.00278762 0.12323 0.0297104 0.00257454 30 310 0 -0.371641 -0.691449 0.0317031 5.48716e-05 
0.0239254 0.0298542 0.00261388 0.0251978 0.0341114 0.002993 252 162 0 -0.604026 -7.05218 -0.394903 0.000540593 
0.0360615 0.0305935 0.00302206 0.0397887 0.0334945 0.00291179 211 141 0 -2.82583 -2.12781 0.08126 0.00027564 
0.0360615 0.0305935 0.00302206 0.0356874 0.0353181 0.00258641 211 7 0 -0.327741 -3.11875 0.196536 0.000240602 
0.0413944 0.0288312 0.00262234 0.0397887 0.0334945 0.00291179 312 141 0 0.600472 -0.601486 -0.00192415 5.94717e-05 
0.0560097 0.0291503 0.00287537 0.0605111 0.0302152 0.00250451 49 273 0 -3.98335 -3.18502 0.235893 0.000359488 
0.0560097 0.0291503 0.00287537 0.05331 0.0323697 0.00272507 49 103 0 6.45979 -7.90799 0.252869 0.000795702 
0.0605111 0.0302152 0.00250451 0.0594865 0.0345229 0.00258952 273 391 0 -0.225362 -7.58814 -0.203837 0.00057134 
0.073752 0.0295643 0.00276201 0.0754733 0.0341065 0.00278121 385 276 0 -0.63809 -1.71585 0.00447863 0.000142591 
0.0816369 0.0304069 0.00274453 0.0847692 0.0338537 0.00256781 19 166 0 -2.8813 -3.2602 0.162569 0.000339214 
0.0916733 0.0311215 0.00291723 0.0963854 0.0305257 0.00254856 32 305 0 -3.15352 -0.841046 0.206164 0.000236099 
0.0963854 0.0305257 0.00254856 0.0995032 0.0334654 0.00259526 305 257 0 -6.58782 -6.38099 -0.0842966 0.000714548 
0.107861 0.0294059 0.00276851 0.11272 0.0297851 0.00253117 124 24 0 -1.54073 -0.151632 0.069775 0.000120745 
0.107861 0.0294059 0.00276851 0.104025 0.0323844 0.00289379 124 187 0 1.46212 -1.07323 -0.029613 0.000141243 
0.107861 0.0294059 0.00276851 0.108451 0.0343244 0.00253309 124 264 0 -0.0397903 -0.521733 0.0133228 4.07096e-05 
0.11272 0.0297851 0.00253117 0.116947 0.0311677 0.00261114 24 329 0 -6.5348 -2.81684 -0.0961682 0.000552185 
0.116947 0.0311677 0.00261114 0.121144 0.033631 0.00248401 329 66 0 -1.7211 -0.39725 0.0181154 0.000131325 
0.116947 0.0311677 0.00261114 0.117272 0.0355196 0.00275912 329 234 0 -1.04775 -8.07291 -0.16687 0.000633415 
0.12323 0.0297104 0.00257454 0.121144 0.033631 0.00248401 310 66 0 0.999233 -7.58364 0.106178 0.000558284 
0.0397887 0.0334945 0.00291179 0.0356874 0.0353181 0.00258641 141 7 0 5.48555 -3.42924 0.346568 0.000499743 
0.0397887 0.0334945 0.00291179 0.0416337 0.0379553 0.00242027 141 256 0 -0.82457 -1.71289 0.0809191 0.00014775 
0.0484908 0.0327973 0.00289861 0.05331 0.0323697 0.00272507 156 103 0 -2.10934 -0.739195 0.0963656 0.000158794 
0.0484908 0.0327973 0.00289861 0.0451624 0.0356273 0.00307655 156 351 0 5.41969 -6.06629 -0.0633183 0.000627529 
0.05331 0.0323697 0.00272507 0.0520186 0.0369315 0.00257364 103 223 0 -0.684767 -3.61292 0.127174 0.000256515 
0.0847692 0.0338537 0.00256781 0.0801818 0.0357503 0.00300448 166 215 0 0.194531 -0.0929949 -0.0135753 1.67908e-05 
0.0847692 0.0338537 0.00256781 0.0867806 0.037709 0.00250397 166 362 0 -4.06175 -7.30846 -0.0224144 0.000651121 
0.0995032 0.0334654 0.00259526 0.104025 0.0323844 0.00289379 257 187 0 -4.26023 1.01285 -0.195342 0.000341468 
0.0995032 0.0334654 0.00259526 0.102612 0.036623 0.0026133 257 261 0 -5.40595 -4.92709 -0.0619708 0.000569076 
0.0995032 0.0334654 0.00259526 0.0979632 0.0381823 0.00289012 257 259 0 0.121224 -0.356431 -0.00656082 2.93346e-05 
0.104025 0.0323844 0.00289379 0.108451 0.0343244 0.00253309 187 264 0 -1.80659 -0.800392 0.0960584 0.000154059 
0.104025 0.0323844 0.00289379 0.102612 0.036623 0.0026133 187 261 0 1.78233 -6.47958 0.288313 0.000523251 
0.121144 0.033631 0.00248401 0.117272 0.0355196 0.00275912 66 234 0 7.75439 -4.08485 -0.347631 0.000682892 
0.121144 0.033631 0.00248401 0.12543 0.036092 0.00278464 66 376 0 -0.388998 -0.578833 -0.0105285 4.87036e-05 
0.121144 0.033631 0.00248401 0.120702 0.0385216 0.0026769 66 63 0 0.356054 -1.0723 -0.0226935 8.56966e-05 
0.0251978 0.0341114 0.002993 0.0243756 0.0385547 0.00264047 162 130 0 -0.0070824 -6.09495 0.331896 0.000467451 
0.030877 0.0348916 0.00288585 0.0356874 0.0353181 0.00258641 339 7 0 -2.10362 0.289194 0.104288 0.000161455 
0.030877 0.0348916 0.00288585 0.033022 0.0391132 0.00264887 339 115 0 -2.87103 -2.26815 0.0501228 0.000258773 
0.0356874 0.0353181 0.00258641 0.033022 0.0391132 0.00264887 7 115 0 2.83244 -3.68867 -0.106621 0.0003621 
0.0356874 0.0353181 0.00258641 0.037476 0.0397563 0.00308601 7 387 0 0.205565 -2.69989 -0.101456 0.000188932 
0.0451624 0.0356273 0.00307655 0.0416337 0.0379553 0.00242027 351 256 0 8.80145 -3.44031 0.866532 0.000721861 
0.0451624 0.0356273 0.00307655 0.0476836 0.0393775 0.0026421 351 70 0 -3.96698 -4.44354 0.351659 0.000460293 
0.0594865 0.0345229 0.00258952 0.0599961 0.0391808 0.00313185 391 326 0 1.2927 -3.80048 -0.17 0.00028305 
0.0754733 0.0341065 0.00278121 0.0801818 0.0357503 0.00300448 276 215 0 -0.0888999 -0.047978 -0.00303248 7.77663e-06 
0.0801818 0.0357503 0.00300448 0.0771883 0.0394219 0.0026435 215 206 0 1.98035 -2.49825 0.232769 0.000249049 
0.108451 0.0343244 0.00253309 0.112675 0.0367512 0.00264044 264 239 0 -1.41313 -0.818995 -0.0230462 0.000127296 
0.108451 0.0343244 0.00253309 0.107513 0.039038 0.00280421 264 58 0 1.06032 -2.23369 0.017936 0.000186438 
0.117272 0.0355196 0.00275912 0.112675 0.0367512 0.00264044 234 239 0 2.98272 -0.724856 0.0313841 0.000239053 
0.117272 0.0355196 0.00275912 0.120702 0.0385216 0.0026769 234 63 0 -4.73963 -3.17839 -0.00849201 0.000440916 
0.117272 0.0355196 0.00275912 0.116537 0.0398642 0.00259544 234 367 0 2.24361 -7.30679 0.155985 0.00059053 
0.12543 0.036092 0.00278464 0.125005 0.0407447 0.00277816 376 354 0 0.487546 -4.18109 -0.0238012 0.000327884 
0.0243756 0.0385547 0.00264047 0.0287684 0.0396289 0.00301425 130 144 0 -6.09329 -0.106042 -0.11989 0.000462309 
0.0243756 0.0385547 0.00264047 0.0220448 0.042235 0.00257007 130 121 0 5.50991 -6.27918 0.227443 0.000643212 
0.0416337 0.0379553 0.00242027 0.037476 0.0397563 0.00308601 256 387 0 5.35918 -1.27484 -0.201207 0.000420416 
0.0520186 0.0369315 0.00257364 0.0476836 0.0393775 0.0026421 223 70 0 0.269601 -0.100139 -0.00625538 2.21187e-05 
0.0520186 0.0369315 0.00257364 0.0553375 0.0401321 0.00253162 223 9 0 -2.6066 -4.49049 -0.015635 0.000389061 
0.0640216 0.0366788 0.00298341 0.0599961 0.0391808 0.00313185 301 326 0 3.25186 -1.04576 0.0065258 0.000258042 
0.0640216 0.0366788 0.00298341 0.0676514 0.039655 0.00268675 301 71 0 -2.95127 -2.39224 0.24097 0.000296604 
0.0724247 0.0386101 0.00249698 0.0676514 0.039655 0.00268675 268 71 0 1.37976 -0.302349 -0.03846 0.000110052 
0.0724247 0.0386101 0.00249698 0.0771883 0.0394219 0.0026435 268 206 0 -2.06386 -0.519177 -0.0819334 0.000165463 
0.0867806 0.037709 0.00250397 0.0915451 0.0381292 0.00292102 362 109 0 -2.62215 0.691964 -0.119814 0.000198856 
0.0867806 0.037709 0.00250397 0.0864662 0.0421422 0.00302529 362 363 0 1.64175 -6.63269 -0.45554 0.000525104 
0.0915451 0.0381292 0.00292102 0.0932121 0.0426984 0.00291516 109 240 0 -0.805956 -1.5676 -0.00487431 0.000136248 
0.0979632 0.0381823 0.00289012 0.102612 0.036623 0.0026133 259 261 0 -1.26614 -0.172178 0.00562912 8.91581e-05 
0.102612 0.036623 0.0026133 0.103415 0.0408157 0.00286969 261 369 0 -2.16944 -9.02729 -0.444318 0.000723355 
0.112675 0.0367512 0.00264044 0.112545 0.0417196 0.00256466 239 400 0 -0.17444 -0.379965 -0.0016983 2.925e-05 
0.112675 0.0367512 0.00264044 0.116537 0.0398642 0.00259544 239 367 0 -0.433626 -0.268736 -0.000905917 3.94285e-05 
0.120702 0.0385216 0.0026769 0.116537 0.0398642 0.00259544 63 367 0 7.71751 -2.09266 0.121752 0.000622404 
0.120702 0.0385216 0.0026769 0.125005 0.0407447 0.00277816 63 354 0 -1.99023 -0.496969 -0.0220421 0.000155554 
0.0287684 0.0396289 0.00301425 0.033022 0.0391132 0.00264887 144 115 0 -9.17599 -1.02904 0.315305 0.000699669 
0.0287684 0.0396289 0.00301425 0.0291298 0.0438772 0.00261159 144 399 0 -0.704789 -9.16172 0.628533 0.000717329 
0.033022 0.0391132 0.00264887 0.037476 0.0397563 0.00308601 115 387 0 -6.28117 0.395652 -0.120849 0.00047863 
0.0476836 0.0393775 0.0026421 0.0499885 0.0431121 0.00249501 70 403 0 -4.90466 -6.15212 0.224986 0.000608861 
0.0553375 0.0401321 0.00253162 0.0599961 0.0391808 0.00313185 9 326 0 -2.46366 1.33981 -0.0206633 0.000207525 
0.0553375 0.0401321 0.00253162 0.0541535 0.0443492 0.00270919 9 258 0 2.38196 -7.54824 -0.0963572 0.000616174 
0.0771883 0.0394219 0.0026435 0.076002 0.0442185 0.00250567 206 17 0 0.222909 -0.698677 0.0147736 5.6984e-05 
0.0771883 0.0394219 0.0026435 0.0807651 0.0426189 0.00272431 206 94 0 -1.88498 -1.78128 -0.00284793 0.000201972 
0.103415 0.0408157 0.00286969 0.107513 0.039038 0.00280421 369 58 0 -6.34381 2.53582 0.19522 0.000532244 
0.103415 0.0408157 0.00286969 0.104122 0.0449173 0.00306948 369 384 0 -0.187016 -10.8172 -0.284911 0.000833171 
0.107513 0.039038 0.00280421 0.108487 0.0436768 0.00246456 58 102 0 -1.54965 -2.93597 -0.0490697 0.000247799 
0.116537 0.0398642 0.00259544 0.112545 0.0417196 0.00256466 367 400 0 7.17716 -2.78227 0.113247 0.000598514 
0.116537 0.0398642 0.00259544 0.117435 0.043919 0.00255592 367 75 0 -4.67136 -10.0966 0.0320736 0.000846771 
0.125005 0.0407447 0.00277816 0.0220506 0.0422318 0.00257007 354 121 1 -1.91938 -0.608677 0.0547819 0.000156889 
0.125005 0.0407447 0.00277816 0.122386 0.0445734 0.00264775 354 338 0 2.40759 -3.93347 0.110339 0.000358951 
0.0220448 0.042235 0.00257007 0.0227676 0.0467793 0.00284841 121 250 0 -0.508565 -4.9815 -0.276124 0.000390127 
0.0499885 0.0431121 0.00249501 0.0541535 0.0443492 0.00270919 403 258 0 -7.98213 -2.39972 -0.327868 0.000649897 
0.0499885 0.0431121 0.00249501 0.0459342 0.0459387 0.00287431 403 51 0 0.463843 -0.302692 -0.0227395 4.31107e-05 
0.0639058 0.0431321 0.00276692 0.0679013 0.0454846 0.00293289 134 21 0 -4.06742 -2.2056 -0.132598 0.000360424 
0.0639058 0.0431321 0.00276692 0.0640687 0.0476003 0.00243342 134 217 0 0.939345 -6.66129 0.313914 0.000516386 
0.0864662 0.0421422 0.00302529 0.0844411 0.0461053 0.00246805 363 311 0 1.98339 -6.40967 0.387359 0.000514788 
0.0932121 0.0426984 0.00291516 0.0950933 0.0470233 0.00262923 240 358 0 -0.191733 -3.75899 0.197809 0.000274978 
0.108487 0.0436768 0.00246456 0.112545 0.0417196 0.00256466 102 400 0 -5.61027 2.95758 0.160088 0.000493429 
0.108487 0.0436768 0.00246456 0.104122 0.0449173 0.00306948 102 384 0 5.31897 -1.05935 -0.369242 0.000421306 
0.108487 0.0436768 0.00246456 0.107717 0.0478919 0.00297336 102 176 0 3.42579 -8.29694 -0.646922 0.000685098 
0.0291298 0.0438772 0.00261159 0.0311012 0.0479285 0.00262597 399 353 0 -2.53812 -5.82323 -0.0864716 0.000494531 
0.0397878 0.0447558 0.0025786 0.040337 0.0495698 0.00304207 243 342 0 -0.612155 -1.6646 0.130618 0.000132707 
0.0459342 0.0459387 0.00287431 0.0450686 0.050435 0.00246356 51 6 0 1.95675 -4.87674 0.346717 0.000402732 
0.0541535 0.0443492 0.00270919 0.0588431 0.0450123 0.0029419 258 72 0 -3.23525 -0.765947 -0.0963823 0.000258016 
0.0541535 0.0443492 0.00270919 0.0543314 0.048479 0.00302668 258 392 0 -0.954337 -10.9093 -0.731952 0.000854271 
0.0588431 0.0450123 0.0029419 0.0594416 0.0493135 0.00280545 72 64 0 -4.3129 -7.88728 0.235791 0.000655222 
0.0679013 0.0454846 0.00293289 0.0721781 0.0468952 0.00266056 21 382 0 -5.83797 -2.27494 0.367618 0.000488332 
0.0679013 0.0454846 0.00293289 0.0640687 0.0476003 0.00243342 21 217 0 6.56018 -3.85702 0.55876 0.000593813 
0.076002 0.0442185 0.00250567 0.0721781 0.0468952 0.00266056 17 382 0 3.19686 -2.81299 -0.0584983 0.000329731 
0.0988508 0.0444025 0.002506 0.0950933 0.0470233 0.00262923 25 358 0 4.69915 -2.62043 -0.135402 0.000417215 
0.0988508 0.0444025 0.002506 0.101211 0.0483591 0.00264655 25 85 0 -3.13045 -3.96618 -0.246804 0.000390741 
0.104122 0.0449173 0.00306948 0.101211 0.0483591 0.00264655 384 85 0 2.66343 -5.70872 0.166611 0.000472769 
0.104122 0.0449173 0.00306948 0.107717 0.0478919 0.00297336 384 176 0 -4.64557 -1.0778 0.123187 0.000332564 
0.117435 0.043919 0.00255592 0.122386 0.0445734 0.00264775 75 338 0 -0.0641164 -0.0399053 0.00085364 5.36909e-06 
0.117435 0.043919 0.00255592 0.118974 0.0484518 0.00302829 75 195 0 -0.0861169 -2.53901 -0.147203 0.00018969 
0.0311012 0.0479285 0.00262597 0.0325251 0.0521743 0.00293895 353 93 0 -2.55017 -6.05309 -0.330428 0.000510887 
0.0543314 0.048479 0.00302668 0.0498743 0.0492647 0.00253779 392 95 0 5.7284 -0.55741 0.403075 0.000447872 
0.0543314 0.048479 0.00302668 0.0560107 0.0529475 0.00267236 392 325 0 -1.61984 -2.31586 0.0803343 0.00021318 
0.0640687 0.0476003 0.00243342 0.0594416 0.0493135 0.00280545 217 64 0 0.739161 0.0607642 0.0519265 5.19289e-05 
0.0640687 0.0476003 0.00243342 0.0659059 0.0521935 0.0027415 217 349 0 -0.462256 -0.415807 -0.011949 4.34449e-05 
0.0721781 0.0468952 0.00266056 0.0703661 0.0507786 0.00247106 382 96 0 4.50566 -7.96659 0.0682686 0.00071047 
0.0804238 0.0481686 0.00265499 0.0844411 0.0461053 0.00246805 116 311 0 -5.88219 2.0418 0.00726213 0.000479963 
0.0844411 0.0461053 0.00246805 0.0862456 0.050046 0.00308172 311 113 0 -3.47846 -7.18946 -0.601407 0.000622581 
0.0906569 0.0484023 0.00268502 0.0950933 0.0470233 0.00262923 213 358 0 -4.18294 1.84298 0.0684259 0.00035391 
0.0906569 0.0484023 0.00268502 0.0862456 0.050046 0.00308172 213 113 0 3.35212 -1.17398 0.00182508 0.000275684 
0.0950933 0.0470233 0.00262923 0.0957893 0.0517327 0.00296609 358 53 0 -0.670745 -2.8512 -0.133027 0.000227542 
0.101211 0.0483591 0.00264655 0.102766 0.0525396 0.00297083 85 152 0 -0.639896 -6.99824 -0.14197 0.000527846 
0.107717 0.0478919 0.00297336 0.112321 0.0484745 0.0027315 176 201 0 -4.2065 -2.81019 0.156067 0.000352799 
0.0360446 0.0489596 0.00279902 0.040337 0.0495698 0.00304207 356 342 0 -8.47205 -0.406032 -0.159321 0.000657639 
0.0360446 0.0489596 0.00279902 0.0325251 0.0521743 0.00293895 356 93 0 2.85294 -1.28048 0.0186233 0.000231285 
0.040337 0.0495698 0.00304207 0.0450686 0.050435 0.00246356 342 6 0 -1.82329 -1.15232 0.0461487 0.000155224 
0.040337 0.0495698 0.00304207 0.0380377 0.0537411 0.00289272 342 212 0 0.332359 -3.25627 -0.00519865 0.000234576 
0.0450686 0.050435 0.00246356 0.0498743 0.0492647 0.00253779 6 95 0 -0.661192 0.178505 -0.00153365 5.33059e-05 
0.0450686 0.050435 0.00246356 0.0423867 0.0544248 0.00255892 6 38 0 0.353604 -2.72521 -0.0471923 0.000191634 
0.0450686 0.050435 0.00246356 0.0466454 0.054832 0.00306519 6 229 0 -2.61474 -3.02874 -0.180587 0.000290302 
0.0594416 0.0493135 0.00280545 0.0560107 0.0529475 0.00267236 64 325 0 0.00513197 -0.0055938 8.46676e-05 6.06476e-07 
0.0703661 0.0507786 0.00247106 0.0659059 0.0521935 0.0027415 96 349 0 4.34062 0.371003 0.0385519 0.00031296 
0.0703661 0.0507786 0.00247106 0.0714567 0.0550605 0.00288348 96 322 0 -4.10431 -6.40156 -0.321953 0.000562183 
0.0862456 0.050046 0.00308172 0.0878527 0.0544666 0.00254467 113 224 0 -1.04298 -3.26366 0.0824671 0.000265768 
0.112321 0.0484745 0.0027315 0.111215 0.0532619 0.00280291 201 136 0 0.136797 -1.10017 0.000159818 8.59149e-05 
0.0325251 0.0521743 0.00293895 0.0313806 0.0564604 0.00299349 93 199 0 1.45454 -7.09543 -0.123882 0.000563434 
0.0560107 0.0529475 0.00267236 0.0512805 0.0543183 0.00263848 325 202 0 0.88492 -0.406937 0.00334367 7.5028e-05 
0.0560107 0.0529475 0.00267236 0.055067 0.0573127 0.00248259 325 343 0 2.26003 -6.4672 0.193889 0.000529876 
0.0560107 0.0529475 0.00267236 0.059495 0.0562658 0.00262222 325 88 0 -0.917923 -2.53735 0.0148746 0.00018814 
0.0659059 0.0521935 0.0027415 0.0647984 0.0568778 0.00267835 349 50 0 0.819402 -2.2618 -0.00325557 0.000186144 
0.0755492 0.0516443 0.002644 0.0755553 0.0565099 0.0024409 11 410 0 0.708561 -1.67433 -0.0505036 0.000130131 
0.0957893 0.0517327 0.00296609 0.0936685 0.0559448 0.00274012 53 308 0 0.88535 -3.55556 0.143669 0.000278701 
0.102766 0.0525396 0.00297083 0.103469 0.0572941 0.00284501 152 315 0 -0.176682 -2.46817 -0.0584925 0.000192091 
0.111215 0.0532619 0.00280291 0.115491 0.0548343 0.00279948 136 271 0 -5.23044 -2.27881 -0.00623452 0.000443774 
0.111215 0.0532619 0.00280291 0.10744 0.0556199 0.00281502 136 288 0 5.76154 -4.0832 -0.0303567 0.000549292 
0.111215 0.0532619 0.00280291 0.111441 0.0582152 0.00275251 136 286 0 -0.0424588 -0.529355 0.00563428 4.13618e-05 
0.0380377 0.0537411 0.00289272 0.0423867 0.0544248 0.00255892 212 38 0 -7.1651 -2.76184 0.287563 0.000584926 
0.0380377 0.0537411 0.00289272 0.0372604 0.0581157 0.00279203 212 37 0 2.17298 -6.85614 0.181807 0.000555783 
0.0423867 0.0544248 0.00255892 0.0466454 0.054832 0.00306519 38 229 0 -8.97759 0.753969 -0.661989 0.000692005 
0.0423867 0.0544248 0.00255892 0.0426228 0.0587059 0.00267051 38 182 0 1.01181 -9.19602 -0.0544585 0.000710964 
0.0466454 0.054832 0.00306519 0.0512805 0.0543183 0.00263848 229 202 0 -4.03474 0.604354 0.100468 0.000317024 
0.0466454 0.054832 0.00306519 0.0471813 0.0596418 0.00296421 229 413 0 0.785139 -2.14593 -0.0103321 0.000159369 
0.0512805 0.0543183 0.00263848 0.055067 0.0573127 0.00248259 202 343 0 -2.38672 -0.501027 0.0275238 0.000170064 
0.0714567 0.0550605 0.00288348 0.0755553 0.0565099 0.0024409 322 410 0 -7.04735 -4.32397 0.440212 0.000630234 
0.0936685 0.0559448 0.00274012 0.0907568 0.0599541 0.0025697 308 238 0 0.375655 -0.393009 0.0208373 4.19926e-05 
0.0936685 0.0559448 0.00274012 0.0960772 0.0602798 0.0027827 308 18 0 -0.474938 -0.332427 0.0380623 4.06079e-05 
0.10744 0.0556199 0.00281502 0.103469 0.0572941 0.00284501 288 315 0 9.18054 -1.02832 -0.0560219 0.000690245 
0.10744 0.0556199 0.00281502 0.111441 0.0582152 0.00275251 288 286 0 -2.24604 -1.99071 0.0368701 0.000231242 
0.0211018 0.055977 0.00270709 0.0226484 0.0602992 0.00272098 12 307 0 -2.67124 -4.62478 0.0310608 0.000409397 
0.0313806 0.0564604 0.00299349 0.0324436 0.0603789 0.00261241 199 180 0 -2.04449 -11.6793 0.838937 0.000922017 
0.055067 0.0573127 0.00248259 0.059495 0.0562658 0.00262222 343 88 0 -6.17441 -1.15313 -0.174067 0.000447738 
0.059495 0.0562658 0.00262222 0.0594726 0.0611367 0.00302366 88 227 0 -0.712382 -1.44151 -0.133368 0.00011256 
0.0755553 0.0565099 0.0024409 0.0759895 0.0609494 0.00271201 410 161 0 -1.52726 -6.69983 -0.197785 0.000531082 
0.098759 0.0563702 0.00281909 0.103469 0.0572941 0.00284501 154 315 0 -2.76331 0.761945 -0.01272 0.000199864 
0.098759 0.0563702 0.00281909 0.0960772 0.0602798 0.0027827 154 18 0 3.24676 -1.80176 0.0316948 0.000258895 
0.103469 0.0572941 0.00284501 0.101801 0.0616556 0.00266065 315 4 0 1.08279 -4.07113 0.159943 0.000326613 
0.111441 0.0582152 0.00275251 0.115869 0.0604861 0.00247359 286 355 0 -0.144751 -0.143431 0.00686845 1.51367e-05 
0.120447 0.0564897 0.00274762 0.123661 0.0599023 0.00286964 77 279 0 -2.41726 -3.19597 -0.0875494 0.000310486 
0.0324436 0.0603789 0.00261241 0.027618 0.0608562 0.00248144 180 117 0 1.90209 -0.205813 0.0648148 0.000149127 
0.0324436 0.0603789 0.00261241 0.0360634 0.0633814 0.00254066 180 289 0 -3.26917 -2.01918 0.0696836 0.000296506 
0.0426228 0.0587059 0.00267051 0.0471813 0.0596418 0.00296421 182 413 0 -4.33625 -0.342946 -0.286718 0.000337086 
0.0426228 0.0587059 0.00267051 0.0404213 0.0622975 0.00250326 182 411 0 5.14802 -8.64564 0.237631 0.000784035 
0.0759895 0.0609494 0.00271201 0.0730763 0.0638356 0.00245438 161 314 0 8.0685 -8.09243 0.5104 0.00089108 
0.0810393 0.059901 0.00294817 0.0855675 0.0591948 0.00292093 365 316 0 -5.39106 0.160613 0.0285727 0.000416947 
0.0855675 0.0591948 0.00292093 0.0876442 0.0636565 0.00264647 316 142 0 -0.0039586 -1.00538 -0.0136252 7.09865e-05 
0.0907568 0.0599541 0.0025697 0.0876442 0.0636565 0.00264647 238 142 0 1.45278 -1.50229 -0.0689992 0.000162484 
0.123661 0.0599023 0.00286964 0.12075 0.0635888 0.00269836 279 297 0 2.08062 -3.249 0.129386 0.000299319 
0.0404213 0.0622975 0.00250326 0.0360634 0.0633814 0.00254066 411 289 0 6.15722 -2.32028 -0.0111844 0.000509185 
0.0404213 0.0622975 0.00250326 0.0431068 0.0658494 0.00284855 411 5 0 -4.58308 -5.12494 -0.247345 0.00053376 
0.0684734 0.0608919 0.00306891 0.0687513 0.0658133 0.00278955 245 303 0 0.354387 -0.826852 0.0505347 6.29075e-05 
0.107783 0.0621874 0.00298036 0.106043 0.0667134 0.00295384 324 296 0 1.27133 -1.58268 0.137939 0.000150731 
0.0321493 0.0655428 0.00289708 0.0360634 0.0633814 0.00254066 269 289 0 -6.39471 2.05507 0.434003 0.000514619 
0.0360634 0.0633814 0.00254066 0.0371124 0.0675716 0.00300431 289 277 0 0.0560634 -8.67204 -0.603924 0.000655672 
0.054251 0.0648713 0.00251141 0.0513997 0.0687119 0.00254844 137 207 0 1.13838 -2.61463 -0.17921 0.000216541 
0.0730763 0.0638356 0.00245438 0.0687513 0.0658133 0.00278955 314 303 0 2.70265 -1.26302 -0.123113 0.00023251 
0.0730763 0.0638356 0.00245438 0.07606 0.0671776 0.00249464 314 108 0 -4.43372 -4.98391 -0.0051967 0.000519709 
0.0876442 0.0636565 0.00264647 0.0918954 0.065317 0.00285199 142 260 0 -5.22274 -1.84618 -0.153916 0.000431472 
0.0876442 0.0636565 0.00264647 0.0833843 0.0660786 0.00301321 142 149 0 0.688369 -1.02035 -0.0426236 8.59546e-05 
0.0876442 0.0636565 0.00264647 0.0880463 0.0681462 0.00273605 142 405 0 0.374639 -6.36678 -0.0367084 0.000491448 
0.0918954 0.065317 0.00285199 0.0880463 0.0681462 0.00273605 260 405 0 2.42479 -1.5009 0.0605613 0.000221524 
0.112703 0.0644446 0.00290175 0.110346 0.0687569 0.00284134 87 372 0 0.818486 -0.802075 -0.00760107 8.53824e-05 
0.12075 0.0635888 0.00269836 0.124374 0.0670139 0.00270709 297 145 0 -0.106251 -0.139592 0.00067244 1.34855e-05 
0.0226696 0.0663273 0.00260011 0.0227623 0.0708415 0.00290181 173 360 0 -0.223238 -6.07845 -0.37773 0.000474733 
0.0371124 0.0675716 0.00300431 0.0356417 0.0721733 0.00251855 277 320 0 0.319763 -1.85682 -0.0119799 0.00014457 
0.0431068 0.0658494 0.00284855 0.0473663 0.0676794 0.00269028 5 131 0 -4.12985 -2.13935 0.0572567 0.000361401 
0.0473663 0.0676794 0.00269028 0.0513997 0.0687119 0.00254844 131 207 0 -10.2103 -3.27339 0.250611 0.00083409 
0.0687513 0.0658133 0.00278955 0.0653047 0.0689062 0.00268357 303 393 0 3.52631 -3.13986 0.0807451 0.000367952 
0.07606 0.0671776 0.00249464 0.0785191 0.0714692 0.00256306 108 290 0 -0.191422 -0.678142 -0.032428 5.33002e-05 
0.0833843 0.0660786 0.00301321 0.0838492 0.0705862 0.00263247 149 226 0 -0.032119 -5.82934 0.317145 0.000452527 
0.0978099 0.0658443 0.00273781 0.101622 0.067884 0.0025146 378 128 0 -8.10176 -3.1092 0.160689 0.000670629 
0.101622 0.067884 0.0025146 0.106043 0.0667134 0.00295384 128 296 0 -4.93984 1.70609 -0.245542 0.000406077 
0.101622 0.067884 0.0025146 0.103323 0.0717516 0.00268439 128 236 0 -3.27634 -9.37392 -0.229478 0.000771418 
0.106043 0.0667134 0.00295384 0.110346 0.0687569 0.00284134 296 372 0 -2.36016 -2.04952 -0.0804852 0.000234405 
0.117102 0.0673189 0.00246996 0.120677 0.0703814 0.00275248 228 23 0 -2.47213 -2.72168 -0.144652 0.000284392 
0.0513997 0.0687119 0.00254844 0.0559589 0.0702859 0.00280331 207 254 0 -2.18693 -0.36278 0.0203855 0.000169968 
0.0513997 0.0687119 0.00254844 0.0493516 0.0726238 0.00300041 207 27 0 3.26924 -6.40353 -0.510786 0.000561323 
0.0559589 0.0702859 0.00280331 0.0573646 0.0744749 0.0029143 254 79 0 -3.58464 -6.64864 -0.16323 0.000580103 
0.0653047 0.0689062 0.00268357 0.067008 0.0732801 0.00258864 393 415 0 -0.665338 -3.94298 0.0887031 0.000305167 
0.0705552 0.07048 0.00252007 0.067008 0.0732801 0.00258864 110 415 0 3.68918 -5.27734 0.00821748 0.00048032 
0.0705552 0.07048 0.00252007 0.0737074 0.0737222 0.00265648 110 89 0 -4.15935 -4.47578 -0.106033 0.00047596 
0.0880463 0.0681462 0.00273605 0.0838492 0.0705862 0.00263247 405 226 0 1.13565 -1.72661 0.0395987 0.00014416 
0.0880463 0.0681462 0.00273605 0.0887497 0.0727047 0.0025042 405 40 0 -2.12969 -4.62279 0.245022 0.000381755 
0.110346 0.0687569 0.00284134 0.10773 0.0726173 0.0028881 372 366 0 1.12275 -4.45381 0.0563947 0.000336286 
0.0227623 0.0708415 0.00290181 0.0233628 0.0753034 0.00307125 360 332 0 -1.73564 -6.18308 0.138799 0.000494726 
0.0356417 0.0721733 0.00251855 0.0322761 0.0750691 0.00270255 320 46 0 5.78235 -4.22884 -0.116744 0.000556328 
0.0356417 0.0721733 0.00251855 0.0395299 0.0750705 0.00283806 320 404 0 -1.98213 -0.36885 0.0196687 0.000140613 
0.0426849 0.0712972 0.002761 0.0395299 0.0750705 0.00283806 390 404 0 1.06088 -0.465119 -0.015862 8.08593e-05 
0.0426849 0.0712972 0.002761 0.0447524 0.0756911 0.002816 390 99 0 -1.61595 -1.27679 -0.0134422 0.000143636 
0.0493516 0.0726238 0.00300041 0.0495303 0.0773189 0.00280564 27 16 0 1.63698 -3.88623 0.0047468 0.000297498 
0.0611556 0.0717294 0.00273917 0.0573646 0.0744749 0.0029143 194 79 0 3.29926 -2.3542 -0.111058 0.00031592 
0.0785191 0.0714692 0.00256306 0.0790924 0.0758957 0.00282932 290 3 0 -2.20845 -6.54722 -0.333376 0.000528612 
0.0838492 0.0705862 0.00263247 0.0841857 0.0752124 0.0025997 226 408 0 1.34598 -4.74898 0.0477891 0.000361468 
0.0945467 0.0704653 0.00294676 0.0982767 0.0737563 0.00289573 169 352 0 -0.138664 -0.334577 0.0137361 2.5374e-05 
0.103323 0.0717516 0.00268439 0.10773 0.0726173 0.0028881 236 366 0 -6.45707 -0.70495 -0.186226 0.000504409 
0.103323 0.0717516 0.00268439 0.102231 0.0762841 0.00280339 236 204 0 2.22781 -3.89932 -0.0804972 0.000336092 
0.10773 0.0726173 0.0028881 0.112412 0.0736954 0.00263588 366 205 0 -2.16246 -1.42018 0.0116667 0.000188815 
0.0395299 0.0750705 0.00283806 0.0378543 0.0792157 0.00280862 404 45 0 1.23171 -6.82286 -0.00727475 0.000528789 
0.0573646 0.0744749 0.0029143 0.054482 0.0785387 0.00297457 79 221 0 0.0543885 -0.233097 -0.000105678 1.72673e-05 
0.0573646 0.0744749 0.0029143 0.0593505 0.0784067 0.00246425 79 143 0 -2.31888 -7.06437 0.302719 0.000572168 
0.067008 0.0732801 0.00258864 0.0633915 0.0765796 0.00275123 415 270 0 0.982375 -0.86314 -0.0226045 0.000101836 
0.0841857 0.0752124 0.0025997 0.0858892 0.0793768 0.00259227 408 100 0 -2.45084 -5.9404 0.0192954 0.000500647 
0.0982767 0.0737563 0.00289573 0.0942297 0.0763734 0.00270684 352 248 0 2.03521 -1.03084 0.0328945 0.000176734 
0.0982767 0.0737563 0.00289573 0.102231 0.0762841 0.00280339 352 204 0 -4.3679 -0.463897 0.0492913 0.00030623 
0.112412 0.0736954 0.00263588 0.111291 0.0781413 0.00284124 205 129 0 0.47505 -5.30995 -0.181593 0.00041043 
0.0233628 0.0753034 0.00307125 0.0252395 0.0792428 0.00251671 332 55 0 -2.53999 -7.34688 0.43125 0.000601347 
0.0447524 0.0756911 0.002816 0.0441045 0.0801926 0.00285174 99 242 0 1.58448 -5.6321 -0.0466704 0.000451958 
0.0633915 0.0765796 0.00275123 0.0593505 0.0784067 0.00246425 270 143 0 6.29854 -3.40214 0.127912 0.000555867 
0.0633915 0.0765796 0.00275123 0.0661272 0.0801373 0.00262569 270 61 0 -6.22963 -3.47067 0.146498 0.000510361 