ITEM: TIMESTEP
2500
ITEM: NUMBER OF ENTRIES
295
ITEM: BOX BOUNDS pp pp pp
0.01375 0.132309
0.01375 0.132309
0 0.0055
ITEM: ENTRIES c_3[1] c_3[2] c_3[3] c_3[4] c_3[5] c_3[6] c_3[7] c_3[8] c_3[9] c_3[10] c_3[11] c_3[12] c_3[13] 
0.0649901 0.0158171 0.00253272 0.0696486 0.0158802 0.00298699 35 306 0 -4.06207 -1.35795 -0.339425 0.000318963 
0.0696486 0.0158802 0.00298699 0.0704133 0.0206349 0.00286157 306 68 0 -0.777422 -2.24661 0.0521781 0.000182503 
0.0931399 0.0159601 0.00250626 0.088755 0.0180507 0.00285614 309 98 0 1.49732 -0.713872 -0.119482 0.000129579 
0.021114 0.0182508 0.00271602 0.0260037 0.0186797 0.00300341 335 244 0 -1.10825 0.435505 -0.0529284 8.31665e-05 
0.021114 0.0182508 0.00271602 0.0169387 0.0203056 0.00253545 335 47 0 4.28808 -1.24338 0.204885 0.000342933 
0.021114 0.0182508 0.00271602 0.0230655 0.0227041 0.00292905 335 401 0 -0.742217 -1.54028 -0.0746768 0.000133276 
0.0260037 0.0186797 0.00300341 0.0230655 0.0227041 0.00292905 244 401 0 0.0887696 -0.199665 0.000588139 1.66532e-05 
0.0260037 0.0186797 0.00300341 0.028931 0.0223494 0.00274606 244 331 0 -2.68927 -2.75713 0.14246 0.000298742 
0.0752815 0.0184521 0.00249179 0.0800502 0.0196663 0.0029721 267 171 0 -0.780309 0.166655 -0.0427357 5.57931e-05 
0.0835627 0.0166652 0.00286009 0.0800502 0.0196663 0.0029721 139 171 0 4.20997 -2.55496 -0.0196043 0.000378643 
0.110837 0.016672 0.00278064 0.107768 0.0202949 0.00293242 412 283 0 2.06532 -2.43748 -0.102904 0.000249069 
0.121174 0.0183872 0.00251941 0.124367 0.0220051 0.00275528 334 30 0 -0.902553 -2.09349 -0.0355222 0.000168774 
0.0518747 0.0206436 0.00283816 0.0543661 0.0246133 0.00284755 165 49 0 -2.26534 -3.32447 0.00775575 0.000313221 
0.0704133 0.0206349 0.00286157 0.0660179 0.0219785 0.00270969 68 395 0 4.91312 -1.53962 0.161399 0.000401354 
0.0704133 0.0206349 0.00286157 0.0733586 0.0244303 0.00277547 68 385 0 -1.33446 -2.13337 0.0448875 0.000195114 
0.0979014 0.0210441 0.00302646 0.0934487 0.0217889 0.00284262 373 31 0 6.12949 -0.827106 0.13825 0.000481705 
0.0979014 0.0210441 0.00302646 0.102649 0.0222522 0.0025417 373 198 0 -0.991564 -0.0980681 0.0609195 7.68685e-05 
0.128714 0.0199702 0.00277295 0.124367 0.0220051 0.00275528 36 30 0 2.29759 -1.17528 0.0541427 0.00020098 
0.0230655 0.0227041 0.00292905 0.0191815 0.0253767 0.00264093 401 252 0 2.64295 -2.41042 0.189665 0.000276494 
0.028931 0.0223494 0.00274606 0.0320052 0.0259307 0.00300063 331 211 0 -2.27954 -2.66004 -0.186593 0.000273345 
0.0934487 0.0217889 0.00284262 0.0938929 0.0264982 0.00289506 31 32 0 -0.11424 -3.46364 -0.0240368 0.000269523 
0.124367 0.0220051 0.00275528 0.127769 0.0250562 0.00258812 30 310 0 -3.98607 -3.77014 0.130987 0.000427442 
0.0191815 0.0253767 0.00264093 0.0203039 0.0301591 0.00297344 252 162 0 -0.159029 -0.96869 -0.059248 7.64434e-05 
0.0380181 0.0246932 0.00264183 0.0364007 0.0291401 0.00288568 312 141 0 1.14692 -3.15345 -0.173876 0.00026181 
0.0543661 0.0246133 0.00284755 0.0587589 0.0262257 0.00254427 49 273 0 -3.66103 -1.58152 0.246124 0.000310834 
0.111767 0.0249726 0.00275411 0.116481 0.0253544 0.00254612 124 24 0 -3.39967 -0.275314 0.150306 0.000266017 
0.127769 0.0250562 0.00258812 0.126276 0.0295788 0.0025141 310 66 0 0.0804745 -3.17676 0.038377 0.000237019 
0.0587589 0.0262257 0.00254427 0.0579723 0.0306947 0.00261253 273 391 0 0.592661 -5.91302 -0.139436 0.000461837 
0.0826131 0.0261543 0.00273981 0.0859084 0.0298019 0.00257287 19 166 0 -0.700738 -0.775667 0.0354991 8.14921e-05 
0.0938929 0.0264982 0.00289506 0.0986284 0.0263507 0.00257155 32 305 0 -3.22065 -0.0577327 0.21797 0.000251254 
0.0986284 0.0263507 0.00257155 0.102118 0.0297332 0.00261716 305 257 0 -1.21148 -1.32775 -0.0198122 0.000139779 
0.107071 0.0284818 0.00288189 0.105666 0.0331348 0.00264689 187 261 0 0.407149 -1.66981 0.0657907 0.000133799 
0.121425 0.027233 0.0026171 0.121846 0.0319523 0.00273116 329 234 0 -0.181643 -3.34183 -0.0618791 0.000260634 
0.0203039 0.0301591 0.00297344 0.0198121 0.0349862 0.00267004 162 130 0 -0.247091 -1.80811 0.0885484 0.000138362 
0.0364007 0.0291401 0.00288568 0.031972 0.0314311 0.0025951 141 7 0 0.0580168 -0.0358167 0.00325859 5.29631e-06 
0.0462872 0.0287879 0.00288593 0.0510286 0.028609 0.00272581 156 103 0 -3.2589 -0.483246 0.128224 0.00025252 
0.0510286 0.028609 0.00272581 0.0503832 0.0332999 0.00259376 103 223 0 -0.0878446 -3.41828 0.09841 0.000263041 
0.0579723 0.0306947 0.00261253 0.0580697 0.0354725 0.00304757 391 326 0 1.2288 -2.61253 -0.0930933 0.000201406 
0.102118 0.0297332 0.00261716 0.100645 0.0342307 0.00286967 257 259 0 1.03593 -3.1772 -0.179272 0.000260765 
0.102118 0.0297332 0.00261716 0.105666 0.0331348 0.00264689 257 261 0 -0.805496 -0.738578 -0.00662267 8.51228e-05 
0.126276 0.0295788 0.0025141 0.130415 0.0322373 0.00276575 66 376 0 -0.786794 -0.539111 -0.0519799 7.44159e-05 
0.0263413 0.0314765 0.00288535 0.0246223 0.0359261 0.00296352 339 144 0 1.77235 -2.46961 0.0082271 0.000229236 
0.0424821 0.0324069 0.00300824 0.0381326 0.034441 0.00248759 351 256 0 2.06246 -0.738459 0.157285 0.00017025 
0.0424821 0.0324069 0.00300824 0.0452191 0.0360275 0.00266738 351 70 0 -3.49109 -4.56015 0.398031 0.000448527 
0.0503832 0.0332999 0.00259376 0.0534501 0.0364612 0.00257631 223 9 0 -4.94566 -5.85059 -0.0535969 0.000595468 
0.0631726 0.0330258 0.00297781 0.0670244 0.0361786 0.00269232 301 71 0 -0.14094 -0.115366 0.0104465 1.42142e-05 
0.08073 0.0322323 0.00298304 0.0775964 0.0357584 0.00265794 215 206 0 1.82746 -3.02777 0.228044 0.000271503 
0.105666 0.0331348 0.00264689 0.106568 0.0377284 0.00285906 261 369 0 -0.771517 -3.94848 -0.181615 0.000313787 
0.112328 0.0310201 0.00254835 0.116404 0.0333306 0.00263354 264 239 0 -3.54181 -1.92617 -0.025767 0.000314068 
0.112328 0.0310201 0.00254835 0.111235 0.0358783 0.00277319 264 58 0 -0.0433413 -0.21298 0.0256511 1.53597e-05 
0.121846 0.0319523 0.00273116 0.120761 0.0364606 0.00260694 234 367 0 1.64997 -4.37139 0.11685 0.000361343 
0.121846 0.0319523 0.00273116 0.125655 0.0351182 0.00268208 234 63 0 -0.541706 -0.290915 0.00112507 4.69397e-05 
0.130415 0.0322373 0.00276575 0.129944 0.0371268 0.00276957 376 354 0 0.0320966 -1.12982 -0.0092566 8.78601e-05 
0.0198121 0.0349862 0.00267004 0.0246223 0.0359261 0.00296352 130 144 0 -1.24471 0.342624 -0.0458007 9.01317e-05 
0.0198121 0.0349862 0.00267004 0.0169752 0.0390284 0.00257945 130 121 0 0.562692 -0.557747 0.0218346 6.07678e-05 
0.0246223 0.0359261 0.00296352 0.0290905 0.035799 0.00270939 144 115 0 -6.74059 -1.05268 0.215317 0.000522735 
0.0290905 0.035799 0.00270939 0.0336304 0.0362432 0.00301687 115 387 0 -5.59613 0.776204 -0.188361 0.000428084 
0.0290905 0.035799 0.00270939 0.030329 0.0406089 0.00291903 115 111 0 0.0837451 -0.40314 -0.00680945 2.8815e-05 
0.0381326 0.034441 0.00248759 0.0336304 0.0362432 0.00301687 256 387 0 1.58529 -0.245021 -0.0643017 0.000121605 
0.0580697 0.0354725 0.00304757 0.0534501 0.0364612 0.00257631 326 9 0 2.83176 -2.24901 0.145131 0.000252316 
0.0730867 0.0349621 0.00252538 0.0775964 0.0357584 0.00265794 268 206 0 -5.05043 -2.28568 -0.115026 0.000418563 
0.0775964 0.0357584 0.00265794 0.0812237 0.0391985 0.00271975 206 94 0 -0.00452288 -0.0041492 -6.8996e-05 4.95616e-07 
0.0883925 0.0343952 0.00255011 0.0931267 0.0345644 0.00290028 362 109 0 -3.19977 -0.0433374 -0.230511 0.00024992 
0.0883925 0.0343952 0.00255011 0.0877501 0.0390561 0.00296432 362 363 0 0.640404 -3.48817 -0.266582 0.000276801 
0.111235 0.0358783 0.00277319 0.112429 0.0402512 0.00254402 58 102 0 -1.7889 -5.64753 0.188929 0.000461361 
0.116404 0.0333306 0.00263354 0.116517 0.0382818 0.00257454 239 400 0 -0.0923368 -0.603501 0.00129954 4.71919e-05 
0.125655 0.0351182 0.00268208 0.129944 0.0371268 0.00276957 63 354 0 -3.0544 -1.42896 -0.0626068 0.000262798 
0.0452191 0.0360275 0.00266738 0.0480636 0.0395984 0.00254404 70 403 0 -3.66872 -4.17962 0.132728 0.000432939 
0.0534501 0.0364612 0.00257631 0.0522202 0.0411007 0.00272168 9 258 0 1.53974 -2.22533 0.0655245 0.000198101 
0.106568 0.0377284 0.00285906 0.107169 0.0420637 0.00300997 369 384 0 -0.35489 -7.99169 -0.178242 0.000620666 
0.116517 0.0382818 0.00257454 0.120761 0.0364606 0.00260694 400 367 0 -4.64664 1.58302 -0.037573 0.000381358 
0.116517 0.0382818 0.00257454 0.112429 0.0402512 0.00254402 400 102 0 5.13085 -3.02315 0.00158848 0.000462383 
0.120761 0.0364606 0.00260694 0.122224 0.0409484 0.00258815 367 75 0 -1.7144 -3.21778 -0.00473672 0.000279735 
0.0480636 0.0395984 0.00254404 0.0522202 0.0411007 0.00272168 403 258 0 -7.36642 -1.38281 -0.237079 0.000576674 
0.0522202 0.0411007 0.00272168 0.056835 0.0419458 0.00291291 258 72 0 -3.63845 -1.80909 -0.177992 0.000304566 
0.0522202 0.0411007 0.00272168 0.0526416 0.0458957 0.00298311 258 392 0 -0.191999 -2.29195 -0.109107 0.000179374 
0.0877501 0.0390561 0.00296432 0.0859856 0.0433865 0.00253811 363 311 0 1.39464 -3.63795 0.328355 0.000304571 
0.0952976 0.0397199 0.00290894 0.0968683 0.0443997 0.00264311 240 358 0 -0.170611 -0.707211 0.0379092 5.65446e-05 
0.112429 0.0402512 0.00254402 0.111333 0.0444888 0.00292042 102 176 0 2.52662 -7.37303 -0.527083 0.000606739 
0.0248553 0.0412964 0.00262122 0.0268236 0.0454858 0.0026516 399 353 0 -1.99806 -4.32507 -0.0498938 0.000371217 
0.0364555 0.0426742 0.00261095 0.0370035 0.0474033 0.00297048 243 342 0 -0.227725 -2.8933 -0.0614953 0.000225708 
0.0674127 0.0427181 0.0029201 0.0720828 0.0443872 0.00264577 21 382 0 -0.387209 -0.176066 0.0258496 3.30831e-05 
0.0757361 0.0417449 0.00251988 0.0720828 0.0443872 0.00264577 17 382 0 4.85573 -4.00535 -0.132103 0.000489547 
0.0859856 0.0433865 0.00253811 0.0877877 0.047608 0.00299514 311 113 0 -2.55386 -4.30384 -0.343499 0.000387268 
0.107169 0.0420637 0.00300997 0.111333 0.0444888 0.00292042 384 176 0 -2.3912 -0.499321 0.0293676 0.000180584 
0.107169 0.0420637 0.00300997 0.104552 0.0458952 0.00270248 384 85 0 1.72055 -4.26231 0.184069 0.000350045 
0.122224 0.0409484 0.00258815 0.12704 0.0416312 0.00264723 75 338 0 -1.78328 0.222584 0.019039 0.00013513 
0.122224 0.0409484 0.00258815 0.12363 0.0455494 0.00299708 75 195 0 -0.0546201 -2.27622 -0.203526 0.000171599 
0.0268236 0.0454858 0.0026516 0.0284031 0.0497903 0.00291054 353 93 0 -1.86219 -4.88069 -0.267226 0.00040751 
0.0627325 0.0455693 0.00248585 0.0582888 0.0470543 0.00277816 217 64 0 3.93623 -0.607195 -0.0831629 0.0003057 
0.0627325 0.0455693 0.00248585 0.0655649 0.0495235 0.00270664 217 349 0 -1.65865 -0.879788 -0.0267196 0.000130961 
0.0720828 0.0443872 0.00264577 0.069811 0.0485207 0.00253043 382 96 0 2.14211 -2.95238 0.0138641 0.000281924 
0.0968683 0.0443997 0.00264311 0.0925336 0.045877 0.00269643 358 213 0 5.09664 -1.76255 -0.091631 0.00042022 
0.0320026 0.0468377 0.00280888 0.0284031 0.0497903 0.00291054 356 93 0 3.42299 -2.77337 -0.0781229 0.000343307 
0.0370035 0.0474033 0.00297048 0.0415081 0.0483775 0.00251073 342 6 0 -4.41809 -1.89043 0.334801 0.000368377 
0.0370035 0.0474033 0.00297048 0.0348272 0.0516253 0.00287171 342 212 0 1.22152 -2.96897 -0.0511194 0.000249105 
0.0526416 0.0458957 0.00298311 0.0547003 0.0502175 0.00269033 392 325 0 -2.30306 -1.79707 0.170427 0.000204028 
0.0582888 0.0470543 0.00277816 0.0547003 0.0502175 0.00269033 64 325 0 2.79234 -1.01762 -0.0809619 0.000215508 
0.0877877 0.047608 0.00299514 0.0893206 0.0520404 0.00257696 113 224 0 -0.291923 -3.84709 0.259785 0.000291377 
0.104552 0.0458952 0.00270248 0.105786 0.0504225 0.00294203 85 152 0 -0.0611497 -3.998 -0.0426313 0.000301574 
0.116197 0.0463817 0.00273761 0.115099 0.0511407 0.00279975 201 136 0 0.371478 -1.43528 -0.0193623 0.000115507 
0.0284031 0.0497903 0.00291054 0.0273158 0.0542696 0.00297184 93 199 0 1.19852 -4.86246 -0.0874208 0.000390253 
0.0415081 0.0483775 0.00251073 0.0395446 0.0528575 0.00259886 6 38 0 -0.0747933 -1.5444 0.0083042 0.000107859 
0.0655649 0.0495235 0.00270664 0.069811 0.0485207 0.00253043 349 96 0 -8.1153 1.01013 0.18734 0.000633536 
0.069811 0.0485207 0.00253043 0.0713629 0.0527761 0.00283511 96 322 0 -2.07754 -5.52221 -0.307887 0.000460248 
0.0757892 0.0499842 0.00263224 0.0757062 0.0547098 0.00249376 11 410 0 0.0877264 -3.48377 0.0861172 0.000271608 
0.0979954 0.0499342 0.00295156 0.0961297 0.0542234 0.00275624 53 308 0 1.26177 -3.90698 0.155635 0.000318587 
0.105786 0.0504225 0.00294203 0.106274 0.0548776 0.00284824 152 315 0 -0.592898 -6.61325 0.065663 0.000517239 
0.0348272 0.0516253 0.00287171 0.0395446 0.0528575 0.00259886 212 38 0 -1.33997 -0.788054 0.0804004 0.000116697 
0.0348272 0.0516253 0.00287171 0.0337649 0.0560329 0.00280175 212 37 0 1.67586 -5.74231 0.0980204 0.000465592 
0.0395446 0.0528575 0.00259886 0.0442097 0.0532079 0.00299909 38 229 0 -3.89345 -0.305391 -0.237806 0.00030474 
0.0395446 0.0528575 0.00259886 0.039624 0.0571587 0.0026693 38 182 0 0.700535 -8.9659 -0.108571 0.000697478 
0.0442097 0.0532079 0.00299909 0.0490423 0.0526943 0.00265262 229 202 0 -1.71043 -0.589836 0.0852745 0.000127833 
0.0442097 0.0532079 0.00299909 0.0442389 0.0580218 0.0029418 229 413 0 0.867376 -2.38791 -0.01275 0.000185617 
0.0490423 0.0526943 0.00265262 0.0530838 0.0553542 0.00252189 202 343 0 -2.14302 -0.474443 0.102923 0.000159979 
0.0713629 0.0527761 0.00283511 0.0757062 0.0547098 0.00249376 322 410 0 -2.73343 -1.21633 0.165251 0.000233425 
0.115099 0.0511407 0.00279975 0.111115 0.053613 0.00281431 136 288 0 3.17454 -2.4525 -0.0180315 0.000310915 
0.115099 0.0511407 0.00279975 0.119644 0.05287 0.00279911 136 271 0 -1.53268 -0.91936 -0.00385708 0.000137081 
0.0158826 0.0543922 0.00270611 0.0178306 0.0589003 0.00270469 12 307 0 -0.574925 -0.995067 0.00671974 8.89324e-05 
0.0530838 0.0553542 0.00252189 0.0575851 0.054868 0.00263764 343 88 0 -6.1119 -0.291558 -0.11431 0.000471072 
0.0575851 0.054868 0.00263764 0.0580233 0.0595623 0.00299713 88 227 0 -0.463197 -3.4486 -0.26701 0.000271693 
0.0757062 0.0547098 0.00249376 0.0763971 0.0592294 0.00269842 410 161 0 -1.67498 -5.2353 -0.239521 0.000423352 
0.0961297 0.0542234 0.00275624 0.0984568 0.0583907 0.00278357 308 18 0 -1.41713 -2.54399 -0.0126089 0.000226913 
0.101537 0.0547563 0.00281954 0.106274 0.0548776 0.00284824 154 315 0 -3.36743 0.796551 -0.0282892 0.000260718 
0.101537 0.0547563 0.00281954 0.0984568 0.0583907 0.00278357 154 18 0 2.48601 -1.86264 0.027062 0.000235955 
0.125377 0.0548933 0.00275027 0.128673 0.0585825 0.00286246 77 279 0 -0.445062 -0.501557 -0.0151277 5.22582e-05 
0.039624 0.0571587 0.0026693 0.0442389 0.0580218 0.0029418 182 413 0 -3.81415 -0.317973 -0.225067 0.000297184 
0.039624 0.0571587 0.0026693 0.0371519 0.0611029 0.00253605 182 411 0 1.59378 -4.19971 0.0538618 0.000343193 
0.0178306 0.0589003 0.00270469 0.0225488 0.059549 0.00249874 307 117 0 -2.95909 -0.408292 0.130467 0.000232981 
0.0681881 0.0603904 0.00302511 0.0682953 0.0651346 0.00278087 245 303 0 -1.0811 -3.15592 0.223919 0.000248321 
0.0869765 0.0582225 0.00290316 0.08878 0.0626753 0.00268278 316 142 0 -0.733247 -2.34252 0.0999399 0.000190792 
0.120088 0.0596275 0.00249677 0.117244 0.0634071 0.00285425 355 87 0 1.19893 -3.20944 -0.187826 0.00025637 
0.128673 0.0585825 0.00286246 0.125716 0.0625053 0.0027029 279 297 0 0.658383 -0.874469 0.0355425 8.53302e-05 
0.0328415 0.0624163 0.00255769 0.0371519 0.0611029 0.00253605 289 411 0 -6.1666 1.51034 -0.0366254 0.000493882 
0.0371519 0.0611029 0.00253605 0.0402457 0.0648659 0.00281571 411 5 0 -0.497004 -1.59377 -0.0187165 0.000120408 
0.08878 0.0626753 0.00268278 0.0849059 0.0653467 0.0029787 142 149 0 2.52903 -2.76455 -0.186818 0.000284857 
0.111153 0.0616887 0.00296743 0.109281 0.0659908 0.00291446 324 296 0 1.12516 -3.81856 0.0933738 0.000307865 
0.0402457 0.0648659 0.00281571 0.0442933 0.0668509 0.00269709 5 131 0 -5.47908 -3.11886 0.0951028 0.000490312 
0.0521093 0.0644705 0.00252202 0.0493479 0.0684928 0.00259322 137 207 0 0.401523 -1.60055 -0.0579979 0.000120591 
0.0682953 0.0651346 0.00278087 0.0648462 0.0682511 0.00268813 303 393 0 3.51741 -2.81838 0.054576 0.00035057 
0.0682953 0.0651346 0.00278087 0.070167 0.0695554 0.00254569 303 110 0 0.169812 -2.76742 0.080065 0.000193493 
0.0849059 0.0653467 0.0029787 0.0890583 0.0677127 0.00273647 149 405 0 -2.08291 -1.90244 0.149688 0.000214719 
0.100816 0.065281 0.00272891 0.105002 0.0672611 0.00257837 378 128 0 -4.44903 -1.60194 0.0888155 0.000366748 
0.0334 0.0674562 0.00296036 0.0320584 0.0720293 0.00256991 277 320 0 -0.0896794 -2.94001 0.164301 0.000218179 
0.0765487 0.0669176 0.00250001 0.0789133 0.0710571 0.00256297 108 290 0 -1.47852 -2.58838 -0.0397762 0.000232295 
0.0890583 0.0677127 0.00273647 0.0851752 0.0704313 0.00264458 405 226 0 2.50121 -2.22019 0.0773196 0.000258937 
0.105002 0.0672611 0.00257837 0.109281 0.0659908 0.00291446 128 296 0 -6.51762 1.63753 -0.417729 0.000524099 
0.105002 0.0672611 0.00257837 0.10673 0.0717683 0.00269971 128 236 0 -0.493547 -2.16752 -0.0323811 0.000171457 
0.109281 0.0659908 0.00291446 0.113618 0.0681708 0.0028417 296 372 0 -1.51081 -1.13207 -0.0168379 0.000144767 
0.113618 0.0681708 0.0028417 0.111256 0.0724654 0.0028593 372 366 0 0.0581937 -1.41275 0.0150264 9.86286e-05 
0.0493479 0.0684928 0.00259322 0.0539249 0.0699598 0.00279132 207 254 0 -2.12164 -1.34293 -0.110293 0.000189568 
0.0493479 0.0684928 0.00259322 0.047113 0.0724295 0.00295405 207 27 0 3.17807 -4.9516 -0.392317 0.000458723 
0.0851752 0.0704313 0.00264458 0.0850511 0.0750546 0.00261459 226 408 0 1.2921 -4.77923 0.00690558 0.000374933 
0.0177758 0.0713439 0.00290039 0.0185302 0.0760591 0.00299406 360 332 0 -0.706582 -2.79817 0.0491835 0.000223866 
0.0320584 0.0720293 0.00256991 0.0283336 0.0751113 0.00269946 320 46 0 1.70365 -1.23714 -0.0164661 0.000163678 
0.0320584 0.0720293 0.00256991 0.0360646 0.0748206 0.0028237 320 404 0 -0.812881 -1.32118 0.0162932 0.000110617 
0.0396003 0.071722 0.00276649 0.0360646 0.0748206 0.0028237 390 404 0 4.13248 -1.09492 -0.00270537 0.000298364 
0.0396003 0.071722 0.00276649 0.042109 0.0758693 0.00281401 390 99 0 -1.7995 -1.20246 -0.0124872 0.000152751 
0.047113 0.0724295 0.00295405 0.0465662 0.0771461 0.00281228 27 16 0 1.15726 -3.09121 0.0891107 0.000249734 
0.0595839 0.071884 0.00275189 0.0558553 0.0746009 0.00289911 194 79 0 3.82971 -3.11405 -0.142872 0.000384197 
0.0971151 0.0706871 0.00293564 0.10064 0.0740956 0.00287629 169 352 0 -0.460296 -1.29742 0.049124 9.61061e-05 
0.10673 0.0717683 0.00269971 0.111256 0.0724654 0.0028593 236 366 0 -5.31041 -0.70258 -0.134351 0.000417372 
0.10673 0.0717683 0.00269971 0.105242 0.0762496 0.0027965 236 204 0 1.2399 -3.33759 -0.0691753 0.000277299 
0.111256 0.0724654 0.0028593 0.115949 0.073657 0.00265424 366 205 0 -1.91211 -0.48185 0.0757536 0.00015377 
0.125273 0.0704438 0.00273653 0.122204 0.0742608 0.00254129 23 350 0 0.794123 -0.987973 0.0534582 9.88757e-05 
0.10064 0.0740956 0.00287629 0.100707 0.0788568 0.00263742 352 15 0 -0.291177 -2.9741 0.127099 0.000232253 
0.0185302 0.0760591 0.00299406 0.0201892 0.0799207 0.00262221 332 55 0 -3.0784 -9.56293 0.648578 0.000780687 
0.042109 0.0758693 0.00281401 0.0465662 0.0771461 0.00281228 99 16 0 -4.3594 -1.7222 -0.0132719 0.000363498 
0.0620371 0.0772413 0.00273765 0.0579101 0.0793119 0.00255917 270 143 0 4.26997 -2.34102 0.119804 0.000379232 
0.0963211 0.0769958 0.00271966 0.0924168 0.0797782 0.00289054 248 185 0 2.31897 -1.22363 -0.0929957 0.000202619 
0.0963211 0.0769958 0.00271966 0.100707 0.0788568 0.00263742 248 15 0 -3.3589 0.207327 0.0385629 0.00023464 
0.0201892 0.0799207 0.00262221 0.0247205 0.0811456 0.00281373 55 184 0 -3.8594 -0.585097 -0.0536661 0.000302088 
0.0201892 0.0799207 0.00262221 0.0194419 0.0843411 0.00277207 55 106 0 0.844922 -6.55358 -0.0985439 0.000514425 
0.0343307 0.0799284 0.00280612 0.036751 0.0842179 0.0027168 45 41 0 -0.466523 -0.826846 0.0172166 7.3982e-05 
0.0531145 0.0789176 0.00294939 0.0579101 0.0793119 0.00255917 221 143 0 -2.10903 -1.28037 0.158196 0.000172396 
0.0579101 0.0793119 0.00255917 0.0563988 0.0834335 0.00301185 143 383 0 1.42558 -7.47916 -0.569405 0.000586812 
0.0700234 0.0787371 0.00255112 0.0658896 0.0806176 0.00262532 20 61 0 5.53459 -2.02839 -0.0247071 0.000457931 
0.0700234 0.0787371 0.00255112 0.0749379 0.0792884 0.00292548 20 344 0 -0.532759 0.0870862 -0.0249581 4.05459e-05 
0.0871895 0.0802981 0.00259704 0.0849408 0.0845225 0.00260193 100 210 0 1.01702 -2.57535 0.000336157 0.00021435 
0.0924168 0.0797782 0.00289054 0.0903833 0.0842181 0.00277159 185 287 0 0.707697 -1.30167 0.0249131 0.000115169 
0.115148 0.0790805 0.00284281 0.11395 0.0838484 0.00288962 129 175 0 -0.256618 -1.17312 0.00414542 8.37992e-05 
0.0247205 0.0811456 0.00281373 0.0284565 0.0840885 0.00258737 184 284 0 -2.41258 -1.88414 0.141574 0.00023876 
0.0795805 0.0828691 0.00251138 0.0754763 0.0847963 0.00279135 73 157 0 5.51927 -2.03731 -0.280374 0.000457206 
0.109289 0.0821222 0.00254386 0.11395 0.0838484 0.00288962 379 175 0 -0.215243 -0.0412434 -0.0122439 1.68562e-05 
0.129422 0.0819509 0.0026873 0.128046 0.0866529 0.00274122 181 347 0 0.365586 -1.23652 -0.0148508 0.000100498 
0.0194419 0.0843411 0.00277207 0.0176012 0.0887343 0.00287815 106 97 0 0.867052 -2.91362 -0.0755261 0.000235564 
0.0563988 0.0834335 0.00301185 0.05777 0.0879595 0.00284617 383 251 0 -1.43617 -3.1586 0.0161667 0.000267863 
0.0706581 0.0840205 0.00255998 0.0754763 0.0847963 0.00279135 263 157 0 -1.48631 0.0093834 -0.0315553 0.000114223 
0.0849408 0.0845225 0.00260193 0.0865813 0.0891548 0.00256608 210 386 0 -0.360616 -1.03805 0.0081781 8.5646e-05 
0.11395 0.0838484 0.00288962 0.118518 0.0832668 0.00283277 175 91 0 -5.20781 -0.718504 0.103324 0.000395525 
0.11395 0.0838484 0.00288962 0.112801 0.0882913 0.00263517 175 10 0 1.66746 -4.91567 0.236334 0.000403726 
0.118518 0.0832668 0.00283277 0.123345 0.0835407 0.00250905 91 280 0 -2.02438 0.827843 0.0979702 0.000154003 
0.118518 0.0832668 0.00283277 0.118183 0.0880679 0.00277296 91 188 0 0.412235 -2.37642 -0.0157228 0.000186935 
0.0504979 0.0854941 0.00273455 0.0533701 0.0894696 0.00272786 39 126 0 -0.770027 -0.955613 -9.4687e-05 9.55131e-05 
0.128046 0.0866529 0.00274122 0.123622 0.0886692 0.00262706 347 345 0 1.51222 -0.915761 0.0342902 0.00013682 
0.0176012 0.0887343 0.00287815 0.0157805 0.0928155 0.00267494 97 262 0 2.41712 -6.3177 0.240889 0.000526539 
0.0533701 0.0894696 0.00272786 0.05777 0.0879595 0.00284617 126 251 0 -4.35367 1.01478 -0.12464 0.000346634 
0.0533701 0.0894696 0.00272786 0.0540553 0.0943336 0.00291396 126 200 0 -0.194464 -1.06581 -0.0350251 8.43728e-05 
0.05777 0.0879595 0.00284617 0.0615362 0.0907219 0.00289741 251 388 0 -2.50931 -3.72034 -0.0124518 0.00032909 
0.0865813 0.0891548 0.00256608 0.0901047 0.092382 0.00262558 386 190 0 -1.97292 -2.05867 -0.0284904 0.000221693 
0.0961518 0.0895151 0.00273411 0.0950521 0.0941373 0.00253478 178 22 0 0.600923 -3.08198 0.121922 0.000244632 
0.104111 0.0886758 0.00272134 0.100662 0.0922374 0.00275128 158 293 0 0.322306 -0.44082 -0.00547743 4.21269e-05 
0.0615362 0.0907219 0.00289741 0.0613832 0.0952166 0.00298189 388 291 0 -1.07442 -6.48151 -0.09321 0.000501917 
0.100662 0.0922374 0.00275128 0.104328 0.0954038 0.00282288 293 340 0 -2.10578 -0.615832 -0.027201 0.000155566 
0.100662 0.0922374 0.00275128 0.0991161 0.0964834 0.00284811 293 321 0 2.60451 -5.61052 -0.0586613 0.000480195 
0.0157805 0.0928155 0.00267494 0.12974 0.0941508 0.0028574 262 163 1 2.69455 -0.248061 -0.101227 0.000207158 
0.0157805 0.0928155 0.00267494 0.0171431 0.0971643 0.0026087 262 394 0 -1.35655 -5.52298 0.0327737 0.000442236 
0.0613832 0.0952166 0.00298189 0.0616543 0.0994922 0.00263097 291 406 0 -0.480796 -8.97476 0.563852 0.000701456 
0.0950521 0.0941373 0.00253478 0.0991161 0.0964834 0.00284811 22 321 0 -3.10803 -2.22924 -0.193066 0.000296905 
0.116492 0.0948602 0.002642 0.120964 0.0945377 0.002591 237 86 0 -6.59331 0.814173 0.0160111 0.00051692 
0.116492 0.0948602 0.002642 0.117115 0.0997299 0.00301987 237 170 0 0.174961 -1.00467 -0.0698302 7.61318e-05 
0.120964 0.0945377 0.002591 0.125433 0.0961818 0.00307275 86 397 0 -2.33459 -1.58591 -0.102134 0.000213104 
0.129746 0.0941489 0.0028574 0.125433 0.0961818 0.00307275 163 397 0 2.58692 -1.35712 -0.0442383 0.000227316 
0.0171431 0.0971643 0.0026087 0.0165919 0.101898 0.00286271 394 304 0 0.0465765 -2.9354 -0.116107 0.000227769 
0.0242095 0.0963282 0.00270525 0.0288506 0.0977203 0.00256295 135 337 0 -1.87289 -0.561784 0.0590998 0.000152443 
0.0468698 0.0953366 0.00296856 0.0438779 0.0986971 0.00246053 377 57 0 4.05928 -4.47533 0.491339 0.000472057 
0.0733197 0.0966183 0.00299088 0.0687463 0.0985426 0.00262683 370 281 0 0.355246 0.0207688 0.01807 2.49481e-05 
0.0733197 0.0966183 0.00299088 0.0781315 0.0976489 0.00289612 370 255 0 -1.0067 -0.0891674 0.00572951 7.8137e-05 
0.0733197 0.0966183 0.00299088 0.0730659 0.101295 0.00269174 370 409 0 -0.913806 -3.9966 0.178529 0.000307344 
0.0991161 0.0964834 0.00284811 0.0951035 0.0991824 0.00265726 321 313 0 1.91322 -0.842655 0.0281516 0.000160311 
0.0991161 0.0964834 0.00284811 0.101124 0.100757 0.00276982 321 282 0 -2.1557 -2.92557 -0.00186657 0.00027769 
0.125433 0.0961818 0.00307275 0.127688 0.100458 0.00271379 397 231 0 -1.59963 -1.38207 -0.014949 0.000152903 
0.0391317 0.0977587 0.00273062 0.0438779 0.0986971 0.00246053 285 57 0 -1.78575 -1.19256 0.0121985 0.00015435 
0.0438779 0.0986971 0.00246053 0.0436513 0.10349 0.00289461 57 1 0 -0.177629 -2.35109 -0.0652662 0.000182055 
0.0616543 0.0994922 0.00263097 0.057503 0.101671 0.00264227 406 230 0 3.87509 -1.22719 0.0328492 0.000311783 
0.0616543 0.0994922 0.00263097 0.064223 0.103362 0.00279533 406 133 0 -2.9663 -3.46239 -0.126453 0.000352708 
0.0687463 0.0985426 0.00262683 0.0687662 0.103174 0.00290595 281 147 0 0.710216 -4.6216 -0.194318 0.000360097 
0.0951035 0.0991824 0.00265726 0.0905932 0.100636 0.00256775 313 168 0 3.15044 -1.11449 0.0623386 0.00026029 
0.117115 0.0997299 0.00301987 0.116029 0.10406 0.00298531 170 295 0 1.80644 -6.63176 0.0440455 0.000535424 
0.0357329 0.102401 0.00298308 0.0393977 0.105425 0.00262729 218 150 0 -2.39692 -1.82821 0.194674 0.000235167 
0.0530527 0.100273 0.00289709 0.0500966 0.103706 0.00291557 34 292 0 3.87514 -4.61121 -0.0382416 0.000469277 
0.0530527 0.100273 0.00289709 0.057503 0.101671 0.00264227 34 230 0 -4.22599 -0.591127 0.206734 0.000328312 
0.0730659 0.101295 0.00269174 0.0687662 0.103174 0.00290595 409 147 0 3.53351 -1.60593 -0.133797 0.000302522 
0.0730659 0.101295 0.00269174 0.0758315 0.105161 0.00275531 409 14 0 -1.72228 -2.64714 -0.0234825 0.000245841 
0.0813346 0.101918 0.00274044 0.0858832 0.100423 0.00280434 69 112 0 -2.59912 0.78666 -0.0252577 0.000211524 
0.0858832 0.100423 0.00280434 0.0905932 0.100636 0.00256775 112 168 0 -3.57699 -0.148542 0.177758 0.000279288 
0.101124 0.100757 0.00276982 0.105331 0.102432 0.00267852 282 381 0 -5.31216 -2.97424 0.124214 0.000470359 
0.105331 0.102432 0.00267852 0.103995 0.106988 0.00252778 381 60 0 0.520091 -3.19081 0.10741 0.000250109 
0.0436513 0.10349 0.00289461 0.0393977 0.105425 0.00262729 1 150 0 3.07039 -3.13712 0.174127 0.000319245 
0.0500966 0.103706 0.00291557 0.0477348 0.107638 0.00300292 292 330 0 2.68441 -4.56682 -0.0528223 0.000412727 
0.064223 0.103362 0.00279533 0.0687662 0.103174 0.00290595 133 147 0 -5.84335 -1.06786 -0.147562 0.000451614 
0.064223 0.103362 0.00279533 0.061726 0.107252 0.0027821 133 333 0 2.21689 -4.33015 -0.00514809 0.000377235 
0.116029 0.10406 0.00298531 0.112083 0.106743 0.00255325 295 336 0 2.03937 -1.76325 0.218911 0.000209352 
0.0393977 0.105425 0.00262729 0.0377355 0.110097 0.00281044 150 138 0 0.329818 -0.402006 -0.00954361 3.81184e-05 
0.0393977 0.105425 0.00262729 0.0425324 0.109159 0.0025076 150 371 0 -0.47438 -1.67217 0.0679631 0.000123661 
0.0829274 0.107024 0.00296488 0.0838261 0.111756 0.00265958 62 265 0 -0.415173 -2.18615 0.141073 0.000173726 
0.0982389 0.105791 0.00261217 0.0964067 0.110401 0.00292396 328 44 0 0.13664 -0.343846 -0.0291713 2.89422e-05 
0.112083 0.106743 0.00255325 0.112977 0.111305 0.00281451 336 220 0 -0.585275 -4.38197 -0.179411 0.000344064 
0.121049 0.107116 0.00289554 0.125988 0.106365 0.00299175 203 208 0 -0.0533584 0.00299675 -0.000615692 4.13515e-06 
0.121049 0.107116 0.00289554 0.117681 0.110737 0.00287063 203 357 0 0.504101 -0.471163 0.00403896 5.36239e-05 
0.0244923 0.109583 0.00280156 0.0237375 0.114424 0.00267397 302 361 0 0.195352 -1.25288 0.0330206 9.883e-05 
0.0425324 0.109159 0.0025076 0.0377355 0.110097 0.00281044 371 138 0 1.25457 -0.457589 -0.0589151 0.000102856 
0.0425324 0.109159 0.0025076 0.0463467 0.111956 0.00273347 371 164 0 -2.88952 -1.79036 -0.153565 0.000264301 
0.0477348 0.107638 0.00300292 0.0463467 0.111956 0.00273347 330 164 0 1.9555 -5.50611 0.289396 0.000455589 
0.0687726 0.108241 0.00289554 0.0654739 0.111551 0.00250928 374 84 0 2.48553 -3.14301 0.29464 0.00031099 
0.0330032 0.110208 0.00252163 0.0377355 0.110097 0.00281044 42 138 0 -3.2993 0.0773497 -0.202274 0.000257632 
0.0463467 0.111956 0.00273347 0.0461715 0.11657 0.00268758 164 407 0 0.987855 -4.8811 0.0644085 0.000382973 
0.107641 0.110855 0.00253838 0.108045 0.115568 0.0029969 233 177 0 -0.264279 -3.15355 -0.302203 0.000247705 
0.112977 0.111305 0.00281451 0.117681 0.110737 0.00287063 220 357 0 -3.3567 0.225208 -0.0472191 0.000261793 
0.030209 0.114721 0.00251606 0.0279254 0.118859 0.0027157 278 2 0 1.67282 -3.03083 -0.14677 0.000269981 
0.0574702 0.113017 0.00292184 0.0607613 0.11613 0.00273319 153 151 0 -4.0131 -4.44973 0.232098 0.000465759 
0.0355465 0.116793 0.00276916 0.0347181 0.121559 0.00268904 319 249 0 0.102972 -2.09032 0.0424262 0.000161848 
0.0412179 0.117021 0.00274245 0.0461715 0.11657 0.00268758 81 407 0 -0.317318 0.141202 0.00310429 2.56471e-05 
0.0607613 0.11613 0.00273319 0.0620322 0.120847 0.0026521 151 148 0 -0.621506 -1.35465 0.0384181 0.000114563 
0.0789879 0.116352 0.00283578 0.0834616 0.117798 0.00301772 318 402 0 -3.40844 -1.74718 -0.0891492 0.000294626 
0.0880834 0.117043 0.00280543 0.0834616 0.117798 0.00301772 159 402 0 3.88538 -1.0444 -0.115983 0.000311975 
0.108045 0.115568 0.0029969 0.108349 0.120295 0.00266245 177 272 0 -0.742527 -3.18466 0.179023 0.000251686 