ITEM: TIMESTEP
1000
ITEM: NUMBER OF ENTRIES
109
ITEM: BOX BOUNDS pp pp pp
0.0055 0.140559
0.0055 0.140559
0 0.0055
ITEM: ENTRIES c_3[1] c_3[2] c_3[3] c_3[4] c_3[5] c_3[6] c_3[7] c_3[8] c_3[9] c_3[10] c_3[11] c_3[12] c_3[13] 
0.069303 0.00862572 0.00296921 0.070177 0.0132721 0.00286202 306 68 0 -0.700798 -3.40468 0.078316 0.000270868 
0.132459 0.00816485 0.00258291 0.128559 0.0109089 0.0025412 396 334 0 2.36434 -1.80556 0.0216391 0.000231626 
0.0141218 0.0109419 0.00273353 0.00953442 0.0128244 0.00255125 335 47 0 0.458162 -0.168603 0.0186273 3.80334e-05 
0.0141218 0.0109419 0.00273353 0.0188732 0.0111158 0.00297519 335 244 0 -3.06531 -0.112129 -0.156352 0.000239312 
0.0760912 0.0109617 0.0025316 0.080737 0.0120037 0.00293111 267 171 0 -2.77133 -0.621584 -0.238572 0.000222076 
0.128559 0.0109089 0.0025412 0.131499 0.0146667 0.00272971 334 30 0 -1.67229 -2.36053 -0.113417 0.000225322 
0.070177 0.0132721 0.00286202 0.0729928 0.017067 0.00278684 68 385 0 -2.03074 -2.87075 0.0574179 0.000273946 
0.101684 0.0139305 0.00298784 0.106333 0.0150781 0.00257823 373 198 0 -2.40331 -0.593196 0.21184 0.00019358 
0.134 0.0237272 0.00253025 0.138089 0.0263591 0.00274967 66 376 0 -1.43085 -0.921117 -0.0767977 0.000132723 
0.0197007 0.0259395 0.00288681 0.0176099 0.030466 0.00293877 339 144 0 0.0812042 -0.156635 -0.00139007 1.37319e-05 
0.0558065 0.0252404 0.00263975 0.0554849 0.0300471 0.00298017 391 326 0 0.207144 -2.17557 -0.147667 0.000170595 
0.0756416 0.0250347 0.00274426 0.0734338 0.0292543 0.00254736 276 268 0 1.389 -2.65465 0.124075 0.000233645 
0.117734 0.0257394 0.00256774 0.116731 0.0303899 0.00274739 264 58 0 0.646812 -2.99648 -0.11603 0.000239026 
0.122407 0.0282831 0.00262847 0.122544 0.0330618 0.00257954 239 400 0 -0.0866028 -2.81122 0.0287962 0.000219155 
0.012864 0.0297461 0.00269246 0.0176099 0.030466 0.00293877 130 144 0 -2.45189 -0.371925 -0.127317 0.00019348 
0.0232674 0.030979 0.00273199 0.0243073 0.035702 0.00290545 115 111 0 -0.443392 -2.01373 -0.0739735 0.000160762 
0.0283645 0.0309711 0.00296618 0.0328066 0.0292488 0.00253035 387 256 0 -2.57181 0.997144 0.252554 0.000215819 
0.0414461 0.0309777 0.00267022 0.0446768 0.0347705 0.00255763 70 403 0 -0.137426 -0.161338 0.0047894 1.65168e-05 
0.0554849 0.0300471 0.00298017 0.0509925 0.031608 0.00262309 326 9 0 2.73597 -1.12893 0.207902 0.000230798 
0.0785261 0.0308531 0.00266315 0.081985 0.0341319 0.00271444 206 94 0 -2.17658 -2.06331 -0.0323258 0.000233696 
0.127103 0.0312903 0.00260942 0.122544 0.0330618 0.00257954 367 400 0 1.32821 -0.437847 0.00791378 0.000108819 
0.0509925 0.031608 0.00262309 0.0495459 0.0361318 0.00271703 9 258 0 1.02629 -3.03485 -0.0578135 0.000249626 
0.122544 0.0330618 0.00257954 0.118189 0.0353493 0.00255938 400 102 0 0.893486 -0.525935 0.00472205 8.06842e-05 
0.0495459 0.0361318 0.00271703 0.054312 0.0374952 0.00290164 258 72 0 -0.469461 -0.191617 -0.0198718 3.93037e-05 
0.111713 0.0380888 0.00298836 0.109265 0.0423101 0.00274224 384 85 0 0.666856 -1.30596 0.0653474 0.000114195 
0.129359 0.0366751 0.00260287 0.134301 0.0372376 0.00264549 75 338 0 -0.32833 -0.0373747 -0.00283164 2.57475e-05 
0.0314135 0.0391053 0.00264449 0.0318785 0.0438273 0.00292183 243 342 0 -0.282466 -3.15311 -0.182242 0.000247061 
0.0718451 0.0406899 0.00263485 0.0693891 0.0448265 0.00254693 382 96 0 1.23496 -2.08007 0.0442247 0.000188513 
0.0609633 0.0423864 0.00253308 0.0564475 0.0436731 0.00274415 217 64 0 3.72102 -0.967546 -0.15665 0.000299729 
0.0609633 0.0423864 0.00253308 0.0642545 0.0457887 0.0026859 217 349 0 -2.49442 -2.29796 -0.0967305 0.000263925 
0.094776 0.0422854 0.0027211 0.0903423 0.0440032 0.00295759 213 113 0 2.8607 -1.1083 -0.153013 0.00023934 
0.109265 0.0423101 0.00274224 0.110262 0.046961 0.00291932 85 152 0 -0.64226 -3.012 -0.114536 0.000240128 
0.122128 0.043006 0.00274128 0.121018 0.0477745 0.00279616 201 136 0 0.302097 -1.29849 -0.0149429 0.00010388 
0.0318785 0.0438273 0.00292183 0.0297568 0.0481075 0.00287374 342 212 0 1.19752 -2.59426 0.0190496 0.000222542 
0.0367817 0.0452722 0.00252862 0.035031 0.0497667 0.00259531 6 38 0 0.820342 -2.10604 -0.0312593 0.000176118 
0.0564475 0.0436731 0.00274415 0.0526766 0.0464978 0.00270073 64 325 0 3.00817 -2.15584 0.0228618 0.000288295 
0.0409053 0.0504524 0.00295891 0.0456235 0.0501958 0.00267159 229 202 0 -3.40787 0.118088 0.204967 0.000266116 
0.0456235 0.0501958 0.00267159 0.0497062 0.0525705 0.00254325 202 343 0 -3.11317 -1.66813 0.104138 0.00027514 
0.0348587 0.0552207 0.00266404 0.032556 0.0595343 0.0025654 182 411 0 0.576365 -1.2814 0.0226155 0.000109235 
0.0773787 0.0571736 0.00271606 0.0821067 0.056654 0.00291078 161 365 0 -3.05273 0.335459 -0.126063 0.000239495 
0.0890121 0.0564036 0.00289324 0.0908365 0.061032 0.00269531 316 142 0 -0.0990162 -0.251194 0.0107421 2.10537e-05 
0.0220015 0.0578729 0.00265841 0.0218156 0.0626645 0.00285743 180 269 0 0.0997288 -2.57102 -0.106851 0.000200647 
0.032556 0.0595343 0.0025654 0.0354407 0.0633184 0.00279039 411 5 0 -1.8333 -2.41347 -0.143348 0.000236415 
0.067612 0.0591239 0.00299933 0.0681123 0.0639368 0.00275987 245 303 0 -0.315718 -1.96702 0.103696 0.000155188 
0.0724056 0.0618696 0.002507 0.0681123 0.0639368 0.00275987 314 303 0 2.58166 -1.3809 -0.150025 0.000228215 
0.116383 0.0603815 0.00296346 0.11459 0.0650333 0.00290006 324 296 0 0.0562141 -0.175176 0.00243666 1.43115e-05 
0.123883 0.0622493 0.00281522 0.12759 0.0652228 0.00252527 87 228 0 -2.38641 -1.91407 0.187115 0.000238809 
0.0490188 0.0635697 0.00252701 0.0463734 0.067687 0.00259768 137 207 0 0.732517 -1.1401 -0.0195693 0.000105596 
0.0681123 0.0639368 0.00275987 0.0696183 0.0684471 0.00256779 303 110 0 -0.871757 -2.96817 0.118944 0.000241053 
0.0278355 0.0670426 0.00293889 0.0267851 0.0718382 0.00260911 277 320 0 0.180524 -1.00505 0.0656266 7.96662e-05 
0.11459 0.0650333 0.00290006 0.118835 0.0672609 0.00284659 296 372 0 -2.33976 -1.22786 0.0294925 0.000205895 
0.0101764 0.0716296 0.00290597 0.0109731 0.0763429 0.00296761 360 332 0 -0.46935 -2.77686 -0.0363459 0.00021945 
0.100879 0.0708303 0.00292699 0.104131 0.0743018 0.00286442 169 352 0 -2.12251 -2.27891 0.0415207 0.000242674 
0.132328 0.0703523 0.00272491 0.129264 0.0741638 0.00255291 23 350 0 0.85868 -1.06829 0.0482109 0.000106856 
0.0267851 0.0718382 0.00260911 0.0305981 0.074744 0.00280597 320 404 0 -2.05882 -1.5716 -0.106228 0.00020198 
0.0351839 0.0719821 0.00277052 0.0378372 0.0759658 0.00281042 390 99 0 -1.51829 -2.27959 -0.0228488 0.000213414 
0.116849 0.072459 0.00284691 0.121608 0.0736646 0.00266573 366 205 0 -1.08474 -0.274785 0.0412954 8.72457e-05 
0.0378372 0.0759658 0.00281042 0.0425739 0.0775379 0.00281331 99 16 0 -0.11162 -0.0414523 -0.000121459 9.26859e-06 
0.0532112 0.0752625 0.00290186 0.0507405 0.0793314 0.00293668 79 221 0 1.59565 -2.62779 -0.0225449 0.000239549 
0.0815595 0.0762995 0.00279357 0.0862373 0.0753849 0.00263101 3 408 0 -2.907 0.568364 0.101161 0.000230927 
0.104131 0.0743018 0.00286442 0.104386 0.0791324 0.00265913 352 15 0 -0.209125 -2.02191 0.0830896 0.000158304 
0.0994202 0.0777304 0.00272772 0.0953696 0.0805436 0.00288129 248 185 0 0.695002 -0.482699 -0.0263489 6.59615e-05 
0.0126178 0.0811609 0.00265748 0.011858 0.0858871 0.00277065 55 106 0 0.469898 -2.67686 -0.0635865 0.000211786 
0.0699827 0.079609 0.00258028 0.0747435 0.0801114 0.00289652 20 344 0 -2.57787 -0.272065 -0.171346 0.000202413 
0.120941 0.0802755 0.00284529 0.119927 0.0850462 0.00288218 129 175 0 0.327237 -1.54054 -0.0119118 0.000122712 
0.137173 0.0835228 0.0026905 0.135799 0.0882192 0.00273799 181 347 0 0.383457 -1.30987 -0.0132458 0.000106346 
0.011858 0.0858871 0.00277065 0.0101193 0.0903081 0.00286466 106 97 0 1.16014 -2.96976 -0.0633959 0.000248473 
0.054378 0.0854208 0.00298636 0.0559057 0.0898913 0.00286512 383 251 0 -1.21082 -3.3026 0.0858556 0.000274087 
0.0707547 0.0856122 0.00257624 0.0755231 0.0863225 0.00276934 263 157 0 -2.22107 -0.330846 -0.0899715 0.000175105 
0.125066 0.0849467 0.00280951 0.129849 0.0850112 0.00253575 91 280 0 -2.67798 -0.0358944 0.153395 0.000209018 
0.125066 0.0849467 0.00280951 0.124525 0.089881 0.00277332 91 188 0 0.0762935 -0.45475 0.00185969 3.58681e-05 
0.0475714 0.0875165 0.00273417 0.0504432 0.0914659 0.00272871 39 126 0 -0.882168 -1.21319 0.00167903 0.000116873 
0.0867226 0.0864626 0.00259968 0.0883482 0.0910568 0.00256837 210 386 0 -0.541994 -1.5318 0.0104386 0.000126603 
0.0559057 0.0898913 0.00286512 0.0594437 0.0930216 0.00289915 251 388 0 -2.59365 -2.4114 -0.0200745 0.000275853 
0.0594437 0.0930216 0.00289915 0.0597157 0.0980136 0.00297237 388 291 0 -8.26611e-05 -0.00104274 -1.51991e-05 7.75214e-08 
0.128139 0.0978168 0.00263312 0.132507 0.0996617 0.00300269 86 397 0 -2.85136 -1.27497 -0.230934 0.000243971 
0.0176879 0.0996525 0.00269815 0.0224294 0.101075 0.00257005 135 337 0 -0.59103 -0.177283 0.0159681 4.80926e-05 
0.072991 0.100124 0.00296287 0.0685314 0.101954 0.00265283 370 281 0 2.00785 -0.824015 0.139628 0.000169454 
0.102655 0.100021 0.00282534 0.0986019 0.102579 0.00267159 321 313 0 2.23253 -1.37213 0.0838332 0.000204267 
0.102655 0.100021 0.00282534 0.104906 0.104297 0.00277122 321 282 0 -1.06192 -1.87613 0.0221312 0.000167902 
0.12266 0.0982951 0.0026681 0.123192 0.103092 0.00299337 237 170 0 -0.230214 -2.07451 -0.140714 0.000162997 
0.132507 0.0996617 0.00300269 0.13494 0.103738 0.00274182 397 231 0 -1.66783 -2.67646 0.161323 0.000245987 
0.00925894 0.100676 0.00262778 0.00877605 0.1055 0.00284518 394 304 0 0.187785 -1.87596 -0.0845556 0.000147043 
0.0347858 0.101331 0.00271702 0.0394925 0.10258 0.002509 285 57 0 -1.55049 -0.459062 0.0652024 0.000126039 
0.0394925 0.10258 0.002509 0.0394093 0.107373 0.00285638 57 1 0 0.0326389 -2.4714 -0.178539 0.000193077 
0.0601164 0.103468 0.00264552 0.0628918 0.107482 0.00278912 406 133 0 -0.859426 -1.24301 -0.0444711 0.000117795 
0.0468429 0.108131 0.00291897 0.0443116 0.112374 0.00298931 292 330 0 0.383661 -0.643169 -0.010661 5.83563e-05 
0.0679993 0.107849 0.00290013 0.0681482 0.112607 0.00289485 147 374 0 -0.0963397 -3.07701 0.00341863 0.000239871 
0.121794 0.108492 0.00296407 0.11776 0.111337 0.00257717 295 336 0 0.510953 -0.360257 0.0490045 4.88601e-05 
0.0350615 0.110074 0.00262686 0.0380928 0.113925 0.00251554 150 371 0 -0.775432 -0.985115 0.0284777 9.77059e-05 
0.101595 0.110734 0.00263408 0.0998128 0.115218 0.00290205 328 44 0 0.794138 -1.9984 -0.119465 0.000167808 
0.133761 0.111281 0.00297319 0.137695 0.113988 0.00278171 208 189 0 -2.32859 -1.60188 0.113436 0.000220397 
0.0372148 0.123102 0.00273852 0.042016 0.122642 0.00269182 81 407 0 -2.25605 0.216159 0.0219493 0.000176594 
0.0590711 0.122439 0.00273187 0.0603795 0.127074 0.00265861 151 148 0 -0.639634 -2.26583 0.0358288 0.000183464 
0.0749668 0.125888 0.00259689 0.0761203 0.130548 0.00258609 414 300 0 -0.678361 -2.46318 0.00643881 0.000198993 
0.0848053 0.124243 0.002997 0.0834957 0.129032 0.00262597 402 52 0 0.072408 -0.264783 0.0205148 2.14473e-05 
0.118227 0.125198 0.00265741 0.113565 0.126758 0.00266276 380 272 0 1.02055 -0.341363 -0.00117127 8.38454e-05 
0.0297155 0.128801 0.00267637 0.0322786 0.132874 0.00254964 249 241 0 -1.29825 -2.00239 0.0570842 0.000185969 
0.0761203 0.130548 0.00258609 0.0798249 0.133544 0.00254661 300 348 0 -2.33127 -1.91546 0.0248593 0.000235093 
0.0894826 0.130465 0.00255124 0.0940308 0.128852 0.0027739 398 13 0 -2.04532 0.725159 -0.100159 0.000169261 
0.0940308 0.128852 0.0027739 0.0935972 0.133821 0.00253731 13 119 0 0.00468161 -0.0873374 0.00406325 6.81883e-06 
0.0201081 0.131547 0.00296645 0.0235047 0.135076 0.00277586 67 389 0 -0.912663 -0.873197 0.0511278 9.84064e-05 
0.0322786 0.132874 0.00254964 0.0367815 0.131086 0.00251088 241 118 0 -1.82389 0.800114 0.0200827 0.000155092 
0.0322786 0.132874 0.00254964 0.0351786 0.136658 0.00271141 241 364 0 -1.76927 -2.35428 -0.098869 0.00022958 
0.105112 0.133251 0.00251537 0.105732 0.137952 0.00295498 74 155 0 -0.397556 -3.01518 -0.282772 0.000237991 
0.0235047 0.135076 0.00277586 0.0281891 0.135902 0.00251125 389 232 0 -2.97709 -0.527035 0.168469 0.000235937 
0.113743 0.134818 0.00273692 0.118541 0.136192 0.00292215 105 76 0 -0.0747042 -0.0214015 -0.00288428 6.05878e-06 
0.00832017 0.136079 0.00282115 0.013126 0.13722 0.0025001 375 82 0 -0.625575 -0.148485 0.041791 5.02009e-05 
0.0839467 0.137455 0.00269075 0.0886789 0.136463 0.00272166 192 359 0 -2.07303 0.434368 -0.0135431 0.000165031 
