ITEM: TIMESTEP
4000
ITEM: NUMBER OF ENTRIES
555
ITEM: BOX BOUNDS pp pp pp
0.022 0.124059
0.022 0.124059
0 0.0055
ITEM: ENTRIES c_3[1] c_3[2] c_3[3] c_3[4] c_3[5] c_3[6] c_3[7] c_3[8] c_3[9] c_3[10] c_3[11] c_3[12] c_3[13] 
0.0517326 0.0240946 0.00298042 0.0544553 0.0274076 0.00283959 26 165 0 -5.55278 -7.22035 0.229802 0.000709514 
0.0906767 0.0237399 0.00247692 0.0864743 0.0256906 0.00288459 309 98 0 4.10272 -1.77573 -0.314336 0.000349016 
0.0906767 0.0237399 0.00247692 0.0898641 0.0285187 0.00282475 309 31 0 -0.581967 -1.92015 -0.103589 0.000140111 
0.118618 0.0233411 0.00258601 0.121303 0.0272082 0.00278511 396 36 0 -2.01066 -3.09859 -0.137138 0.00028786 
0.0283037 0.0252113 0.00270316 0.0329609 0.0254998 0.00308738 335 244 0 -4.02254 -1.20264 -0.076533 0.000318035 
0.0329609 0.0254998 0.00308738 0.0351835 0.0294694 0.00267208 244 331 0 -3.92791 -4.15281 0.220367 0.000431641 
0.0329609 0.0254998 0.00308738 0.0304919 0.0297598 0.00297727 244 401 0 0.896304 -0.592874 0.028646 7.50412e-05 
0.045977 0.0251118 0.00262495 0.0481272 0.0293997 0.0028868 92 253 0 -1.12602 -2.24568 -0.137147 0.000196027 
0.0745842 0.0258387 0.00241199 0.0709526 0.0279515 0.00290443 267 68 0 9.34425 -3.5424 -0.753507 0.000769718 
0.0745842 0.0258387 0.00241199 0.0789732 0.0276578 0.00303476 267 171 0 -2.97731 0.193811 -0.152311 0.000208294 
0.0826618 0.0241917 0.00286609 0.0864743 0.0256906 0.00288459 139 98 0 -11.3943 -2.71045 0.0660133 0.000903442 
0.0864743 0.0256906 0.00288459 0.0898641 0.0285187 0.00282475 98 31 0 -5.87777 -4.67627 -0.0499731 0.000584938 
0.0864743 0.0256906 0.00288459 0.0858686 0.0303134 0.00278308 98 225 0 0.139935 -4.33876 0.00266162 0.000336552 
0.0994708 0.0248532 0.00260231 0.0978398 0.122936 0.00306528 247 155 1 3.1467 8.07844 -0.659022 0.000676975 
0.0994708 0.0248532 0.00260231 0.0989847 0.0295876 0.00246514 247 198 0 1.83083 -2.8932 0.0342573 0.000238802 
0.0994708 0.0248532 0.00260231 0.102974 0.0280707 0.00298157 247 283 0 -2.49869 -1.60509 -0.132376 0.0002281 
0.105919 0.0240679 0.00276112 0.109514 0.0270494 0.00286296 412 29 0 -3.98214 -1.79913 -0.0371592 0.000328294 
0.105919 0.0240679 0.00276112 0.102974 0.0280707 0.00298157 412 283 0 0.327026 -0.172536 0.00822681 2.58817e-05 
0.1136 0.0255292 0.0024826 0.109514 0.0270494 0.00286296 334 29 0 7.95908 -1.521 -0.519644 0.000623679 
0.1136 0.0255292 0.0024826 0.116676 0.0292476 0.00280624 334 30 0 -2.14536 -0.956262 -0.0472645 0.00016384 
0.0237464 0.0279559 0.00248587 0.121298 0.0272033 0.00278511 47 36 1 5.41575 0.237554 -0.246692 0.000419618 
0.0237464 0.0279559 0.00248587 0.0262045 0.0319823 0.00258172 47 252 0 -1.53634 -3.29423 -0.124082 0.000281569 
0.0544553 0.0274076 0.00283959 0.0569767 0.0312341 0.0029036 165 49 0 -2.94867 -4.46963 0.131539 0.000417025 
0.0709526 0.0279515 0.00290443 0.0662013 0.0293196 0.00268333 68 395 0 0.583156 -0.351028 -0.127426 5.07486e-05 
0.0898641 0.0285187 0.00282475 0.0946849 0.0279556 0.00310971 31 373 0 -1.68065 0.931676 0.0330496 0.000138106 
0.0898641 0.0285187 0.00282475 0.0858686 0.0303134 0.00278308 31 225 0 7.96394 -1.67865 0.176791 0.000619736 
0.0898641 0.0285187 0.00282475 0.0904544 0.0334771 0.00293483 31 32 0 -0.0386433 -0.0639691 -0.00112892 5.32822e-06 
0.0946849 0.0279556 0.00310971 0.0989847 0.0295876 0.00246514 373 198 0 -4.844 -0.144972 0.237213 0.00035598 
0.0946849 0.0279556 0.00310971 0.0951795 0.0324792 0.00252367 373 305 0 -1.16874 -5.17759 0.436068 0.000411883 
0.102974 0.0280707 0.00298157 0.0989847 0.0295876 0.00246514 283 198 0 8.4824 -2.94369 0.674284 0.000700529 
0.102974 0.0280707 0.00298157 0.1059 0.0315505 0.00277891 283 124 0 -3.85786 -4.28886 0.147687 0.000449237 
0.121303 0.0272082 0.00278511 0.120991 0.0318458 0.00256889 36 310 0 1.93426 -4.32763 0.186007 0.000346848 
0.0304919 0.0297598 0.00297727 0.0351835 0.0294694 0.00267208 401 331 0 -3.71846 0.121142 0.0726722 0.000289505 
0.0304919 0.0297598 0.00297727 0.0262045 0.0319823 0.00258172 401 252 0 1.30923 -1.78832 0.073402 0.000154661 
0.0351835 0.0294694 0.00267208 0.0380898 0.0328921 0.00304443 331 211 0 -3.71836 -5.18235 -0.139446 0.000494503 
0.0662013 0.0293196 0.00268333 0.0657946 0.0339778 0.00257446 395 186 0 1.32014 -4.04326 0.112644 0.000322886 
0.0989847 0.0295876 0.00246514 0.0951795 0.0324792 0.00252367 198 305 0 1.74198 -2.38353 -0.00697163 0.000220399 
0.116676 0.0292476 0.00280624 0.114782 0.0329973 0.00260433 30 329 0 4.52238 -9.13841 0.259006 0.000794426 
0.0262045 0.0319823 0.00258172 0.0276612 0.0361111 0.00302618 252 162 0 -0.316456 -8.04073 -0.414885 0.000599212 
0.0380898 0.0328921 0.00304443 0.0375192 0.0372661 0.0025581 211 7 0 -0.321791 -7.30853 0.488325 0.000562195 
0.0380898 0.0328921 0.00304443 0.0416738 0.035606 0.00293759 211 141 0 -4.89987 -4.22183 0.169146 0.000503106 
0.0430993 0.0308732 0.00261076 0.0416738 0.035606 0.00293759 312 141 0 0.45099 -0.486531 -0.000606431 4.63475e-05 
0.0569767 0.0312341 0.0029036 0.0615065 0.0320512 0.00246815 49 273 0 -4.33318 -3.20912 0.212181 0.000376533 
0.0569767 0.0312341 0.0029036 0.0543212 0.0343852 0.00271802 49 103 0 6.99148 -8.78921 0.343144 0.000875021 
0.0615065 0.0320512 0.00246815 0.0657946 0.0339778 0.00257446 273 186 0 -3.94466 -0.550715 0.0271679 0.000297795 
0.0615065 0.0320512 0.00246815 0.0602649 0.0365853 0.00257872 273 391 0 -0.830476 -4.18627 -0.116967 0.000297665 
0.0739195 0.0320561 0.00275528 0.0754479 0.035978 0.00278916 385 276 0 -3.64861 -9.47012 -0.0130363 0.000790678 
0.0810587 0.0324311 0.00275229 0.0842035 0.0357757 0.00255762 19 166 0 -3.28806 -4.03744 0.206264 0.000404994 
0.0904544 0.0334771 0.00293483 0.0951795 0.0324792 0.00252367 32 305 0 -2.12219 -0.552481 0.129662 0.000153211 
0.0951795 0.0324792 0.00252367 0.0981144 0.0353844 0.00257745 305 257 0 -8.30659 -7.48066 -0.0857366 0.000870011 
0.1059 0.0315505 0.00277891 0.11073 0.0319323 0.00251758 124 24 0 -1.9001 -0.0143276 0.0531156 0.000147684 
0.1059 0.0315505 0.00277891 0.102575 0.0341182 0.00291913 124 187 0 8.15658 -6.16485 -0.194324 0.000796606 
0.1059 0.0315505 0.00277891 0.106533 0.0359537 0.00252132 124 264 0 -0.661804 -6.95997 0.221854 0.000544178 
0.11073 0.0319323 0.00251758 0.114782 0.0329973 0.00260433 24 329 0 -9.67445 -4.07266 -0.174595 0.000809789 
0.114782 0.0329973 0.00260433 0.118828 0.0357399 0.00245331 329 66 0 -1.55797 -0.213164 -0.0157065 0.000109727 
0.114782 0.0329973 0.00260433 0.114791 0.0373517 0.0027954 329 234 0 -1.69683 -8.22987 -0.1608 0.000641424 
0.120991 0.0318458 0.00256889 0.118828 0.0357399 0.00245331 310 66 0 2.02138 -6.86619 0.0533748 0.000544086 
0.0416738 0.035606 0.00293759 0.0375192 0.0372661 0.0025581 141 7 0 5.6135 -3.58136 0.324509 0.000510015 
0.0416738 0.035606 0.00293759 0.0432732 0.0398317 0.00235029 141 256 0 -3.15094 -4.90571 0.305297 0.000443738 
0.0496621 0.034617 0.00290713 0.0543212 0.0343852 0.00271802 156 103 0 -4.25402 0.0118891 0.161936 0.000331319 
0.0496621 0.034617 0.00290713 0.0465074 0.0371489 0.0031544 156 351 0 8.34415 -9.04906 -0.16993 0.000947366 
0.0543212 0.0343852 0.00271802 0.0527876 0.0386909 0.00255759 103 223 0 -0.415689 -5.9527 0.239708 0.000426436 
0.0657946 0.0339778 0.00257446 0.0701281 0.0360362 0.0026378 186 120 0 -2.34265 -1.11358 -0.0304226 0.00020211 
0.0657946 0.0339778 0.00257446 0.0644475 0.0384298 0.00299619 186 301 0 0.895398 -4.13554 -0.317894 0.000329497 
0.0842035 0.0357757 0.00255762 0.079964 0.0374372 0.00302639 166 215 0 5.00397 -2.05893 -0.391114 0.000422428 
0.0842035 0.0357757 0.00255762 0.086041 0.0393688 0.00245947 166 362 0 -5.92938 -10.8555 0.0276976 0.000963151 
0.0981144 0.0353844 0.00257745 0.102575 0.0341182 0.00291913 257 187 0 -4.56905 0.378253 -0.184092 0.00035063 
0.0981144 0.0353844 0.00257745 0.101161 0.0384605 0.00257432 257 261 0 -6.15355 -6.01561 -0.093647 0.000670399 
0.102575 0.0341182 0.00291913 0.106533 0.0359537 0.00252132 187 264 0 -7.32683 -3.07263 0.463887 0.000619322 
0.102575 0.0341182 0.00291913 0.101161 0.0384605 0.00257432 187 261 0 1.71876 -5.11627 0.18428 0.000420413 
0.118828 0.0357399 0.00245331 0.114791 0.0373517 0.0027954 66 234 0 7.35092 -3.71399 -0.351039 0.000639404 
0.118828 0.0357399 0.00245331 0.122954 0.0378972 0.00279366 66 376 0 -2.94051 -3.57527 -0.0947405 0.000331748 
0.118828 0.0357399 0.00245331 0.118519 0.0402749 0.00267798 66 63 0 2.09407 -5.63422 -0.145803 0.000449051 
0.0276612 0.0361111 0.00302618 0.0266688 0.0403393 0.00261829 162 130 0 0.571578 -8.26523 0.476794 0.000637799 
0.033008 0.03655 0.00289075 0.0375192 0.0372661 0.0025581 339 7 0 -5.54024 0.546113 0.290901 0.000420198 
0.033008 0.03655 0.00289075 0.0351111 0.0409915 0.00260323 339 115 0 -0.869152 -0.686328 0.0284933 7.73453e-05 
0.0375192 0.0372661 0.0025581 0.0351111 0.0409915 0.00260323 7 115 0 4.87784 -5.4625 -0.0942682 0.0005638 
0.0375192 0.0372661 0.0025581 0.0394426 0.041598 0.0031344 7 387 0 0.125335 -3.22721 -0.119651 0.000225336 
0.0465074 0.0371489 0.0031544 0.0432732 0.0398317 0.00235029 351 256 0 8.9699 -3.68943 0.890753 0.000721632 
0.0465074 0.0371489 0.0031544 0.0488671 0.0410211 0.00262402 351 70 0 -3.95952 -4.13109 0.225224 0.000434499 
0.0602649 0.0365853 0.00257872 0.0644475 0.0384298 0.00299619 391 301 0 -4.79017 -2.15375 -0.31526 0.000409728 
0.0602649 0.0365853 0.00257872 0.060905 0.0411189 0.00318123 391 326 0 1.11207 -5.10658 -0.324051 0.000381896 
0.0701281 0.0360362 0.0026378 0.0720781 0.040386 0.00247761 120 268 0 -2.11987 -2.2904 0.0377418 0.000230366 
0.0754479 0.035978 0.00278916 0.079964 0.0374372 0.00302639 276 215 0 -2.83195 -1.58878 -0.0980361 0.00024809 
0.079964 0.0374372 0.00302639 0.0769736 0.0412819 0.00263161 215 206 0 1.0704 -1.00608 0.0982561 0.000113347 
0.106533 0.0359537 0.00252132 0.110762 0.038505 0.00264381 264 239 0 -0.833722 -0.0969485 -0.0189648 5.95474e-05 
0.106533 0.0359537 0.00252132 0.105764 0.0404935 0.00281296 264 58 0 1.95519 -4.7034 -0.0936183 0.000386426 
0.114791 0.0373517 0.0027954 0.110762 0.038505 0.00264381 234 239 0 10.0497 -2.50737 0.158182 0.000806438 
0.114791 0.0373517 0.0027954 0.114218 0.0414554 0.00258504 234 367 0 2.73491 -10.649 0.271863 0.000851175 
0.114791 0.0373517 0.0027954 0.118519 0.0402749 0.00267798 234 63 0 -2.46165 -2.28108 -0.0868055 0.000260381 
0.122954 0.0378972 0.00279366 0.122583 0.0425892 0.00278938 376 354 0 0.69914 -3.72084 0.0015572 0.000293312 
0.0266688 0.0403393 0.00261829 0.0306795 0.0411943 0.00307208 130 144 0 -11.1836 -1.43401 -0.471892 0.00087422 
0.0266688 0.0403393 0.00261829 0.0244621 0.0439007 0.00254765 130 121 0 6.80111 -8.00781 0.296402 0.00080974 
0.0432732 0.0398317 0.00235029 0.0394426 0.041598 0.0031344 256 387 0 8.63988 -3.10022 -0.639681 0.000709558 
0.0527876 0.0386909 0.00255759 0.0488671 0.0410211 0.00262402 223 70 0 5.34223 -2.03297 -0.136899 0.000438833 
0.0527876 0.0386909 0.00255759 0.0563869 0.041958 0.00250649 223 9 0 -0.722573 -1.85431 0.0132381 0.000138822 
0.0644475 0.0384298 0.00299619 0.060905 0.0411189 0.00318123 301 326 0 6.93527 -2.51674 -0.042561 0.000548624 
0.0644475 0.0384298 0.00299619 0.0680029 0.0414735 0.00267801 301 71 0 -3.32316 -2.20348 0.254523 0.000308985 
0.0720781 0.040386 0.00247761 0.0680029 0.0414735 0.00267801 268 71 0 9.7016 -2.3206 -0.35695 0.000777371 
0.0720781 0.040386 0.00247761 0.0769736 0.0412819 0.00263161 268 206 0 -0.286151 0.0800714 -0.0107424 2.08434e-05 
0.086041 0.0393688 0.00245947 0.090825 0.0398489 0.00293709 362 109 0 -2.25016 0.663306 0.0128971 0.000168367 
0.086041 0.0393688 0.00245947 0.0858359 0.0437 0.00308628 362 363 0 1.86043 -7.87268 -0.50875 0.000618864 
0.090825 0.0398489 0.00293709 0.0921823 0.0441137 0.00292501 109 240 0 -2.93742 -6.12847 0.00336024 0.000524405 
0.0965853 0.0401738 0.00290233 0.101161 0.0384605 0.00257432 259 261 0 -1.46683 -0.143403 -0.0126977 0.000102835 
0.101161 0.0384605 0.00257432 0.101706 0.0423458 0.00288541 261 369 0 -3.36491 -13.3011 -0.798758 0.0010643 
0.110762 0.038505 0.00264381 0.114218 0.0414554 0.00258504 239 367 0 -4.83048 -3.3467 0.0152932 0.000455516 
0.110762 0.038505 0.00264381 0.110522 0.0434277 0.00255139 239 400 0 -0.308539 -0.923078 -0.00187139 7.06675e-05 
0.118519 0.0402749 0.00267798 0.114218 0.0414554 0.00258504 63 367 0 6.5832 -2.106 0.0990341 0.000538129 
0.118519 0.0402749 0.00267798 0.122583 0.0425892 0.00278938 63 354 0 -4.01227 -1.31772 -0.0233587 0.000322401 
0.0306795 0.0411943 0.00307208 0.0351111 0.0409915 0.00260323 144 115 0 -6.96654 -0.212096 0.0714449 0.000539076 
0.0306795 0.0411943 0.00307208 0.0312043 0.0452228 0.00258654 144 399 0 -1.33254 -11.5492 0.993847 0.000908517 
0.0351111 0.0409915 0.00260323 0.0394426 0.041598 0.0031344 115 387 0 -7.70366 -0.243903 -0.140867 0.000594033 
0.0351111 0.0409915 0.00260323 0.0363641 0.0456587 0.00294112 115 111 0 -0.441635 -1.95917 0.0420125 0.000155733 
0.0394426 0.041598 0.0031344 0.041438 0.0457608 0.00256591 387 243 0 -1.75482 -4.12381 0.283947 0.000348876 
0.0488671 0.0410211 0.00262402 0.0508875 0.044956 0.00244896 70 403 0 -4.31651 -6.04915 0.249696 0.000573232 
0.0563869 0.041958 0.00250649 0.060905 0.0411189 0.00318123 9 326 0 -4.28155 2.01699 -0.217804 0.000355359 
0.0563869 0.041958 0.00250649 0.0551763 0.0458861 0.00268905 9 258 0 2.82614 -11.0184 -0.314002 0.000885473 
0.060905 0.0411189 0.00318123 0.0642612 0.0443954 0.00277135 326 134 0 -2.64182 -2.65144 0.203937 0.000291824 
0.0680029 0.0414735 0.00267801 0.0642612 0.0443954 0.00277135 71 134 0 1.79361 -2.95347 -0.000449691 0.000251713 
0.0769736 0.0412819 0.00263161 0.0805777 0.0443354 0.00272789 206 94 0 -2.55703 -2.44842 0.00208132 0.000275278 
0.0769736 0.0412819 0.00263161 0.0762065 0.0454205 0.0024938 206 17 0 2.7743 -9.77807 0.244546 0.000788659 
0.101706 0.0423458 0.00288541 0.105764 0.0404935 0.00281296 369 58 0 -6.33073 2.77021 0.222102 0.000538572 
0.101706 0.0423458 0.00288541 0.102398 0.0465257 0.00312883 369 384 0 0.266242 -9.88306 -0.261823 0.00075625 
0.105764 0.0404935 0.00281296 0.106637 0.0452792 0.00239617 58 102 0 -0.989663 -1.36287 -0.050526 0.000117557 
0.114218 0.0414554 0.00258504 0.110522 0.0434277 0.00255139 367 400 0 9.78713 -3.76135 0.208128 0.000810826 
0.114218 0.0414554 0.00258504 0.115194 0.0456494 0.00253367 367 75 0 -3.93728 -8.22311 0.0390523 0.000693572 
0.122583 0.0425892 0.00278938 0.0244679 0.0438976 0.00254765 354 121 1 -10.314 -3.02773 0.400538 0.00083734 
0.122583 0.0425892 0.00278938 0.119994 0.0461458 0.00264489 354 338 0 4.16323 -6.46624 0.203366 0.000598423 
0.0244621 0.0439007 0.00254765 0.0253578 0.0483089 0.00285896 121 250 0 -0.720061 -6.27471 -0.350066 0.00049099 
0.0508875 0.044956 0.00244896 0.0473338 0.0472138 0.00288639 403 51 0 8.24553 -5.36547 -0.593937 0.00076708 
0.0508875 0.044956 0.00244896 0.0551763 0.0458861 0.00268905 403 258 0 -7.25836 -3.13037 -0.360614 0.000605019 
0.0642612 0.0443954 0.00277135 0.0598267 0.0463604 0.00296721 134 72 0 1.83874 -0.465338 -0.0387845 0.000145651 
0.0642612 0.0443954 0.00277135 0.0682484 0.0467623 0.00296931 134 21 0 -4.17452 -1.98954 -0.112985 0.000358884 
0.0642612 0.0443954 0.00277135 0.0645545 0.0488848 0.00238551 134 217 0 1.06833 -6.29678 0.309267 0.000484455 
0.0805777 0.0443354 0.00272789 0.0762065 0.0454205 0.0024938 94 17 0 5.84555 -2.54679 0.209216 0.000490012 
0.0805777 0.0443354 0.00272789 0.0836674 0.0473969 0.002397 94 311 0 -5.8219 -5.76647 0.215351 0.000637854 
0.0858359 0.0437 0.00308628 0.0836674 0.0473969 0.002397 363 311 0 2.7422 -8.23273 0.482369 0.000658966 
0.0921823 0.0441137 0.00292501 0.0942359 0.0483787 0.00261221 240 358 0 -0.126549 -3.58252 0.162147 0.000256058 
0.106637 0.0452792 0.00239617 0.110522 0.0434277 0.00255139 102 400 0 -7.90596 4.14219 0.218007 0.000693841 
0.106637 0.0452792 0.00239617 0.102398 0.0465257 0.00312883 102 384 0 6.80099 -0.602891 -0.497772 0.000520956 
0.106637 0.0452792 0.00239617 0.105842 0.0498255 0.00302392 102 176 0 2.36429 -4.06404 -0.153445 0.000342163 
0.0312043 0.0452228 0.00258654 0.0332302 0.0491511 0.00260343 399 353 0 -2.84661 -6.90714 -0.0435377 0.000579973 
0.0363641 0.0456587 0.00294112 0.0332302 0.0491511 0.00260343 111 353 0 2.12087 -3.18993 0.158564 0.000295464 
0.0363641 0.0456587 0.00294112 0.0379213 0.0499725 0.0027898 111 356 0 -1.7278 -4.98829 0.0829086 0.000411238 
0.041438 0.0457608 0.00256591 0.0422077 0.0505864 0.00308195 243 342 0 0.281786 -1.18596 0.140902 8.61712e-05 
0.0473338 0.0472138 0.00288639 0.046763 0.0514935 0.00242053 51 6 0 2.85269 -8.11068 0.639935 0.000657336 
0.0473338 0.0472138 0.00288639 0.0509167 0.0504849 0.00252471 51 95 0 -1.63884 -0.776947 0.0465814 0.000135011 
0.0551763 0.0458861 0.00268905 0.0598267 0.0463604 0.00296721 258 72 0 -3.99857 -0.949897 -0.0589362 0.000317168 
0.0551763 0.0458861 0.00268905 0.0553134 0.0500219 0.00308695 258 392 0 -0.809835 -10.7639 -0.85752 0.000842842 
0.0598267 0.0463604 0.00296721 0.0601139 0.0506558 0.00281047 72 64 0 -5.00148 -8.56581 0.262555 0.00069222 
0.0682484 0.0467623 0.00296931 0.0645545 0.0488848 0.00238551 21 217 0 7.79092 -4.43603 0.73759 0.000699873 
0.0682484 0.0467623 0.00296931 0.0724218 0.0480878 0.00266097 21 382 0 -7.35797 -2.68659 0.385486 0.000610365 
0.0762065 0.0454205 0.0024938 0.0724218 0.0480878 0.00266097 17 382 0 3.6676 -2.97238 -0.0391395 0.000366861 
0.0975666 0.045687 0.00249535 0.102398 0.0465257 0.00312883 25 384 0 -0.725417 -0.00951189 -0.0273552 5.56146e-05 
0.0975666 0.045687 0.00249535 0.0942359 0.0483787 0.00261221 25 358 0 8.0623 -4.63863 -0.232413 0.000715966 
0.0975666 0.045687 0.00249535 0.0995317 0.04965 0.00261433 25 85 0 -4.85084 -5.82326 -0.354965 0.000574932 
0.102398 0.0465257 0.00312883 0.0995317 0.04965 0.00261433 384 85 0 5.36431 -7.80052 0.417869 0.000728996 
0.102398 0.0465257 0.00312883 0.105842 0.0498255 0.00302392 384 176 0 -3.13328 -0.973841 0.132061 0.000228968 
0.115194 0.0456494 0.00253367 0.119994 0.0461458 0.00264489 75 338 0 -2.10991 -1.21443 0.01968 0.000173174 
0.115194 0.0456494 0.00253367 0.116646 0.0499722 0.00304942 75 195 0 -1.0202 -5.21033 -0.359266 0.000410685 
0.0332302 0.0491511 0.00260343 0.0379213 0.0499725 0.0027898 353 356 0 -2.87301 -0.982193 -0.129366 0.000233903 
0.0332302 0.0491511 0.00260343 0.0346188 0.0533884 0.00296095 353 93 0 -2.63605 -6.24312 -0.352357 0.00052672 
0.0553134 0.0500219 0.00308695 0.0509167 0.0504849 0.00252471 392 95 0 6.91161 -0.889189 0.503859 0.000543431 
0.0553134 0.0500219 0.00308695 0.0601139 0.0506558 0.00281047 392 64 0 -1.83689 -0.794575 0.0298853 0.000149876 
0.0553134 0.0500219 0.00308695 0.0567973 0.0541344 0.00266562 392 325 0 -2.93836 -7.23492 0.347211 0.000607714 
0.0645545 0.0488848 0.00238551 0.0601139 0.0506558 0.00281047 217 64 0 2.61261 -0.417218 -0.0231025 0.000200484 
0.0645545 0.0488848 0.00238551 0.0659492 0.0534675 0.00276037 217 349 0 -1.85698 -2.0618 0.0164797 0.00019511 
0.0724218 0.0480878 0.00266097 0.0705387 0.0519288 0.00242641 382 96 0 3.91346 -8.3207 0.105353 0.000715726 
0.0798687 0.0495015 0.00265517 0.0836674 0.0473969 0.002397 116 311 0 -8.05811 2.68714 0.0187085 0.000649599 
0.0836674 0.0473969 0.002397 0.0854862 0.0514189 0.00315051 311 113 0 -2.86904 -6.08857 -0.393314 0.000522049 
0.0896385 0.0497041 0.0026822 0.0942359 0.0483787 0.00261221 213 358 0 -2.36426 1.75147 0.0362184 0.00021484 
0.0896385 0.0497041 0.0026822 0.0854862 0.0514189 0.00315051 213 113 0 5.97251 -1.84087 -0.120183 0.00048322 
0.0942359 0.0483787 0.00261221 0.0947362 0.0525823 0.00298304 358 53 0 -1.75916 -9.47896 -0.558521 0.000750487 
0.0995317 0.04965 0.00261433 0.101265 0.0537124 0.00298858 85 152 0 -1.07506 -7.46836 -0.206379 0.000567418 
0.105842 0.0498255 0.00302392 0.110493 0.0495733 0.00272419 176 201 0 -4.37721 -1.8998 0.242599 0.000333083 
0.0379213 0.0499725 0.0027898 0.0422077 0.0505864 0.00308195 356 342 0 -8.50212 -0.423416 -0.202854 0.000660004 
0.0379213 0.0499725 0.0027898 0.0346188 0.0533884 0.00296095 356 93 0 3.31933 -1.18017 0.0339318 0.000245626 
0.0379213 0.0499725 0.0027898 0.0394971 0.0545575 0.00291971 356 212 0 -1.30865 -1.58808 0.0506353 0.000149987 
0.0422077 0.0505864 0.00308195 0.046763 0.0514935 0.00242053 342 6 0 -3.79774 -1.33307 0.0941272 0.00030841 
0.0422077 0.0505864 0.00308195 0.0394971 0.0545575 0.00291971 342 212 0 0.367629 -2.68597 0.106625 0.000189195 
0.0422077 0.0505864 0.00308195 0.0437633 0.0550763 0.00250586 342 38 0 -1.52346 -2.37673 0.129272 0.000213478 
0.046763 0.0514935 0.00242053 0.0509167 0.0504849 0.00252471 6 95 0 -9.00081 2.33302 -0.121994 0.000724369 
0.046763 0.0514935 0.00242053 0.0437633 0.0550763 0.00250586 6 38 0 1.08543 -4.55417 -0.0565106 0.000326383 
0.046763 0.0514935 0.00242053 0.0481437 0.0556328 0.00312817 6 229 0 -4.3852 -6.40386 -0.44371 0.00057946 
0.0509167 0.0504849 0.00252471 0.0524122 0.05513 0.00262923 95 202 0 -0.126631 -1.56365 -0.0226964 0.000118996 
0.0601139 0.0506558 0.00281047 0.0567973 0.0541344 0.00266562 64 325 0 1.49402 -1.97151 0.0370387 0.000191495 
0.0705387 0.0519288 0.00242641 0.0754463 0.0524215 0.00264953 96 11 0 -0.781155 -0.272269 0.00157385 6.261e-05 
0.0705387 0.0519288 0.00242641 0.0659492 0.0534675 0.00276037 96 349 0 2.09851 0.241563 0.133242 0.000147992 
0.0705387 0.0519288 0.00242641 0.0714134 0.05628 0.00293444 96 322 0 -4.65798 -6.05635 -0.239592 0.000532818 
0.0854862 0.0514189 0.00315051 0.0871521 0.0557692 0.00252361 113 224 0 -1.58766 -3.54607 0.0078423 0.000299647 
0.110493 0.0495733 0.00272419 0.109293 0.0541251 0.00280338 201 136 0 -0.0753135 -3.89707 -0.00348899 0.000292082 
0.0346188 0.0533884 0.00296095 0.033311 0.0574365 0.00303334 93 199 0 1.616 -9.52848 -0.0954216 0.000745172 
0.0567973 0.0541344 0.00266562 0.0524122 0.05513 0.00262923 325 202 0 6.0994 -2.30093 -0.0159699 0.000503091 
0.0567973 0.0541344 0.00266562 0.0606511 0.0569915 0.00261393 325 88 0 -1.31478 -2.58721 0.0207615 0.000202368 
0.0567973 0.0541344 0.00266562 0.0558362 0.0584372 0.00245015 325 343 0 1.991 -7.25799 0.238675 0.000585946 
0.0659492 0.0534675 0.00276037 0.0652029 0.0577647 0.00267836 349 50 0 2.495 -7.8751 0.0246403 0.000637709 
0.0754463 0.0524215 0.00264953 0.0756294 0.0573781 0.00239236 11 410 0 0.192625 -0.435359 -0.00409146 3.33068e-05 
0.0947362 0.0525823 0.00298304 0.0924141 0.0568966 0.00272815 53 308 0 0.0530857 -1.33949 0.0171409 9.38263e-05 
0.101265 0.0537124 0.00298858 0.101922 0.0584897 0.00285108 152 315 0 -1.18262 -2.11806 -0.0896471 0.000175778 
0.109293 0.0541251 0.00280338 0.10563 0.0566774 0.00281568 136 288 0 5.64073 -3.92646 -0.0276727 0.000535504 
0.109293 0.0541251 0.00280338 0.113567 0.055886 0.00279998 136 271 0 -4.65566 -1.42261 -0.00194006 0.000377635 
0.109293 0.0541251 0.00280338 0.109525 0.059024 0.00275201 136 286 0 -0.115956 -1.21944 0.0210483 9.53632e-05 
0.0394971 0.0545575 0.00291971 0.0437633 0.0550763 0.00250586 212 38 0 -8.51758 -2.61619 0.298833 0.000682489 
0.0394971 0.0545575 0.00291971 0.0389354 0.0593771 0.00278126 212 37 0 1.14191 -1.74907 0.0837059 0.000145832 
0.0437633 0.0550763 0.00250586 0.0481437 0.0556328 0.00312817 38 229 0 -7.21873 1.7501 -0.477484 0.000540699 
0.0437633 0.0550763 0.00250586 0.0440917 0.0595285 0.00267043 38 182 0 1.15175 -6.94903 0.109312 0.000532703 
0.0481437 0.0556328 0.00312817 0.0524122 0.05513 0.00262923 229 202 0 -8.58394 1.09071 0.395556 0.000673198 
0.0481437 0.0556328 0.00312817 0.0487671 0.0605432 0.00298654 229 413 0 0.216484 -0.651898 -0.053984 4.81461e-05 
0.0524122 0.05513 0.00262923 0.0558362 0.0584372 0.00245015 202 343 0 -3.23068 -1.018 0.0743943 0.000236223 
0.0714134 0.05628 0.00293444 0.0756294 0.0573781 0.00239236 322 410 0 -6.77266 -5.08265 0.400511 0.000609666 
0.0871521 0.0557692 0.00252361 0.0849933 0.0596621 0.00292975 224 316 0 2.30799 -6.49531 -0.358707 0.000530097 
0.0924141 0.0568966 0.00272815 0.0973884 0.0571436 0.00281947 308 154 0 -0.235151 -0.118228 -0.000400731 1.87595e-05 
0.0924141 0.0568966 0.00272815 0.0898676 0.0606039 0.00256664 308 238 0 4.29892 -4.81975 0.248792 0.000499537 
0.10563 0.0566774 0.00281568 0.101922 0.0584897 0.00285108 288 315 0 11.3993 -2.17617 -0.0542978 0.000872422 
0.10563 0.0566774 0.00281568 0.109525 0.059024 0.00275201 288 286 0 -4.74305 -3.37294 0.0811347 0.000452203 
0.113567 0.055886 0.00279998 0.117917 0.0571936 0.00274335 271 77 0 -5.57295 -1.86454 0.0501659 0.000457629 
0.0236287 0.0566266 0.00270863 0.025136 0.0611384 0.00272902 12 307 0 -1.76023 -2.70111 0.0267589 0.00024309 
0.033311 0.0574365 0.00303334 0.0345598 0.0611959 0.00257752 199 180 0 -2.50393 -12.8175 1.10383 0.00101247 
0.0389354 0.0593771 0.00278126 0.0345598 0.0611959 0.00257752 37 180 0 2.84104 -1.75899 0.0901835 0.00025705 
0.0389354 0.0593771 0.00278126 0.0377263 0.0636935 0.00249993 37 289 0 0.831854 -6.54698 0.196511 0.000508589 
0.0389354 0.0593771 0.00278126 0.0419987 0.0629346 0.00247216 37 411 0 -1.97436 -3.29905 0.135311 0.000295192 
0.0606511 0.0569915 0.00261393 0.0652029 0.0577647 0.00267836 88 50 0 -5.00807 0.165086 -0.0649488 0.000382533 
0.0652029 0.0577647 0.00267836 0.0686201 0.0611297 0.00309386 50 245 0 -1.4023 -1.97613 -0.146609 0.000186144 
0.0756294 0.0573781 0.00239236 0.076078 0.0617938 0.00274142 410 161 0 -1.0852 -6.97471 -0.0661191 0.000547916 
0.0973884 0.0571436 0.00281947 0.101922 0.0584897 0.00285108 154 315 0 -3.8224 0.672722 0.0120368 0.000270577 
0.0973884 0.0571436 0.00281947 0.0947918 0.0612976 0.00278036 154 18 0 1.23422 -0.757672 0.00859969 0.000101061 
0.101922 0.0584897 0.00285108 0.100301 0.06234 0.00265638 315 4 0 3.21526 -10.0233 0.45931 0.000817738 
0.109525 0.059024 0.00275201 0.106135 0.0623877 0.00299157 286 324 0 1.72742 -2.22392 -0.117875 0.000217743 
0.109525 0.059024 0.00275201 0.113774 0.0609258 0.0024602 286 355 0 -3.41708 -2.91926 0.185269 0.000336172 
0.117917 0.0571936 0.00274335 0.121296 0.0605583 0.00288046 77 279 0 -1.4622 -2.69938 -0.050099 0.000229168 
0.025136 0.0611384 0.00272902 0.0301054 0.0615196 0.00246999 307 117 0 -0.11349 -0.064559 0.00358057 9.21423e-06 
0.0345598 0.0611959 0.00257752 0.0301054 0.0615196 0.00246999 180 117 0 6.77049 -1.09554 0.256036 0.000532631 
0.0345598 0.0611959 0.00257752 0.0377263 0.0636935 0.00249993 180 289 0 -10.2656 -7.00752 0.251513 0.000966283 
0.0440917 0.0595285 0.00267043 0.0487671 0.0605432 0.00298654 182 413 0 -2.76526 0.350853 -0.198021 0.000205351 
0.0440917 0.0595285 0.00267043 0.0419987 0.0629346 0.00247216 182 411 0 6.89598 -10.7818 0.388693 0.000997297 
0.076078 0.0617938 0.00274142 0.0806779 0.060556 0.00295732 161 365 0 -3.04478 0.10675 -0.187164 0.000231644 
0.076078 0.0617938 0.00274142 0.0728958 0.0643179 0.00242176 161 314 0 8.54003 -8.33257 0.602659 0.000925613 
0.0806779 0.060556 0.00295732 0.0849933 0.0596621 0.00292975 365 316 0 -7.67466 0.462115 0.0440328 0.000592856 
0.0849933 0.0596621 0.00292975 0.0898676 0.0606039 0.00256664 316 238 0 -0.296994 0.0300648 0.0157451 2.2301e-05 
0.0849933 0.0596621 0.00292975 0.0869455 0.0639325 0.00262209 316 142 0 -1.4423 -3.50206 0.0399676 0.000294446 
0.0898676 0.0606039 0.00256664 0.0947918 0.0612976 0.00278036 238 18 0 -0.307441 0.100284 -0.011719 2.2641e-05 
0.0898676 0.0606039 0.00256664 0.0869455 0.0639325 0.00262209 238 142 0 4.72794 -5.58747 -0.213411 0.00057034 
0.0947918 0.0612976 0.00278036 0.0960512 0.0660285 0.0027478 18 378 0 -0.477572 -1.25798 0.0171266 0.000104244 
0.121296 0.0605583 0.00288046 0.118194 0.0642163 0.00269194 279 297 0 0.938146 -2.56324 0.0778515 0.000199695 
0.0419987 0.0629346 0.00247216 0.0377263 0.0636935 0.00249993 411 289 0 7.97013 -3.60855 -0.114741 0.000660624 
0.0419987 0.0629346 0.00247216 0.0445134 0.0663994 0.00287481 411 5 0 -6.0051 -6.7387 -0.447195 0.000699937 
0.0602206 0.0619762 0.00304335 0.0642796 0.0644644 0.00299926 227 191 0 -2.32226 -2.07741 -0.022827 0.000238816 
0.0602206 0.0619762 0.00304335 0.0601124 0.0667846 0.00281221 227 125 0 0.0651036 -2.37068 0.0732453 0.000184821 
0.0686201 0.0611297 0.00309386 0.0690449 0.0660928 0.00279804 245 303 0 0.049385 -0.132276 0.00611381 9.97291e-06 
0.106135 0.0623877 0.00299157 0.104489 0.0670176 0.00297681 324 296 0 0.884418 -0.861408 0.0828513 8.63551e-05 
0.0340239 0.0661872 0.00291997 0.0377263 0.0636935 0.00249993 269 289 0 -6.53339 2.12963 0.511409 0.000516393 
0.0377263 0.0636935 0.00249993 0.0389717 0.0678363 0.00304499 289 277 0 -0.191143 -8.50928 -0.586015 0.000639919 
0.0553472 0.0650073 0.00250072 0.0527275 0.0687487 0.00250517 137 207 0 3.25001 -4.50229 -0.2691 0.000432615 
0.0642796 0.0644644 0.00299926 0.0601124 0.0667846 0.00281221 191 125 0 2.53357 -1.42968 0.113073 0.000226831 
0.0642796 0.0644644 0.00299926 0.0654291 0.0692178 0.0026801 191 393 0 -0.799217 -1.11425 0.0787229 9.92072e-05 
0.0728958 0.0643179 0.00242176 0.0690449 0.0660928 0.00279804 314 303 0 8.67968 -3.93539 -0.507575 0.000743084 
0.0728958 0.0643179 0.00242176 0.0759229 0.0674137 0.00249082 314 108 0 -5.44022 -6.70317 0.0047317 0.00066968 
0.0869455 0.0639325 0.00262209 0.0825891 0.0663265 0.00304331 142 149 0 0.108503 -0.111692 0.0386682 1.13198e-05 
0.0869455 0.0639325 0.00262209 0.0911412 0.0657293 0.00285799 142 260 0 -5.30682 -1.61392 -0.16897 0.000429727 
0.0869455 0.0639325 0.00262209 0.0874484 0.0684003 0.00274376 142 405 0 0.962037 -6.59779 -0.0391056 0.000502366 
0.0911412 0.0657293 0.00285799 0.0960512 0.0660285 0.0027478 260 378 0 -1.01608 -0.134581 0.0235538 7.96131e-05 
0.0911412 0.0657293 0.00285799 0.0874484 0.0684003 0.00274376 260 405 0 4.79891 -3.02083 0.132331 0.00044103 
0.110477 0.0649425 0.00292636 0.108768 0.0689971 0.00284588 87 372 0 5.32671 -6.10057 -0.00796434 0.00059909 
0.118194 0.0642163 0.00269194 0.114934 0.0676687 0.00245388 297 228 0 2.22455 -2.23374 0.117353 0.00024567 
0.118194 0.0642163 0.00269194 0.121775 0.0673193 0.00270694 297 145 0 -1.98814 -2.82507 0.0149712 0.000261206 
0.0252395 0.0665127 0.00258984 0.0252104 0.0705662 0.00291694 173 360 0 -0.158649 -11.9462 -0.893064 0.00093323 
0.0389717 0.0678363 0.00304499 0.0375658 0.0721526 0.00249015 277 320 0 1.54636 -5.27507 0.186487 0.0004267 
0.0445134 0.0663994 0.00287481 0.048771 0.0680809 0.00269121 5 131 0 -4.92927 -2.14921 0.0859437 0.000418655 