ITEM: TIMESTEP
500
ITEM: NUMBER OF ENTRIES
56
ITEM: BOX BOUNDS pp pp pp
0.00275 0.143309
0.00275 0.143309
0 0.0055
ITEM: ENTRIES c_3[1] c_3[2] c_3[3] c_3[4] c_3[5] c_3[6] c_3[7] c_3[8] c_3[9] c_3[10] c_3[11] c_3[12] c_3[13] 
0.0691609 0.00605289 0.00296812 0.0700736 0.0108199 0.00286251 306 68 0 -0.35367 -1.83048 0.0405408 0.000145293 
0.134848 0.00554582 0.00258262 0.130871 0.00838255 0.0025427 396 334 0 1.19579 -0.859246 0.0118408 0.000114731 
0.0117823 0.00841569 0.00273638 0.0166083 0.00859231 0.00297234 335 244 0 -2.11346 -0.0773442 -0.103365 0.000164978 
0.0762446 0.00844057 0.00253395 0.0810221 0.0095121 0.00292877 267 171 0 -1.09836 -0.246353 -0.0907745 8.79891e-05 
0.130871 0.00838255 0.0025427 0.13386 0.0122642 0.00272851 334 30 0 -0.752754 -0.991722 -0.0471604 9.70746e-05 
0.0700736 0.0108199 0.00286251 0.0729688 0.014757 0.00278743 68 385 0 -0.84793 -1.16639 0.0222968 0.000112365 
0.102866 0.0115275 0.0029866 0.107675 0.0127144 0.00257947 373 198 0 -0.372901 -0.092041 0.0315697 3.0027e-05 
0.0757293 0.0231159 0.00274269 0.0734689 0.027436 0.00254893 276 268 0 0.715967 -1.36835 0.0613761 0.000120422 
0.119544 0.0238649 0.00256961 0.118521 0.0286022 0.00274553 264 58 0 0.406874 -1.88492 -0.0700086 0.000150345 
0.124418 0.0264879 0.00262821 0.124561 0.0314068 0.00257981 239 400 0 -0.0292902 -1.011 0.00994933 7.88082e-05 
0.0104288 0.0279857 0.00269319 0.0153381 0.0287304 0.00293804 130 144 0 -0.361645 -0.054859 -0.0180365 2.85341e-05 
0.0265693 0.0292492 0.00296398 0.0311449 0.0274751 0.00253256 387 256 0 -0.876922 0.340001 0.082684 7.3563e-05 
0.0547536 0.0282955 0.00297836 0.050097 0.0299625 0.00262529 326 9 0 0.495577 -0.187008 0.0371003 4.13642e-05 
0.0787789 0.029163 0.00266356 0.0823207 0.0325204 0.00271404 206 94 0 -1.11279 -1.05488 -0.0158604 0.000119474 
0.050097 0.0299625 0.00262529 0.0486053 0.0345811 0.00271611 9 258 0 0.574947 -1.77936 -0.0349692 0.000145722 
0.0297229 0.037767 0.00264688 0.0301922 0.0426083 0.00291934 243 342 0 -0.158705 -1.6374 -0.0921563 0.000128376 
0.0717899 0.0393846 0.00263461 0.0692478 0.0436664 0.00254717 382 96 0 0.12859 -0.216587 0.00442307 1.96282e-05 
0.0604462 0.0411862 0.00253683 0.0557946 0.0424878 0.00274139 217 64 0 2.04474 -0.564125 -0.0886484 0.00016541 
0.0604462 0.0411862 0.00253683 0.0638646 0.0446476 0.0026846 217 349 0 -1.2158 -1.19619 -0.0502313 0.000132934 
0.0956074 0.0410544 0.00272382 0.0911015 0.0428001 0.00295487 213 113 0 1.93869 -0.751094 -0.0994354 0.000162178 
0.110753 0.0411098 0.00274416 0.111767 0.0458475 0.00291746 85 152 0 -0.407509 -1.90241 -0.0696014 0.000151686 
0.0301922 0.0426083 0.00291934 0.028001 0.047079 0.00287384 342 212 0 0.116083 -0.242512 0.00215596 2.0947e-05 
0.0353018 0.0441514 0.00252876 0.0334873 0.0488098 0.00259517 6 38 0 0.00123913 -0.00318119 -4.53573e-05 2.6602e-07 
0.0557946 0.0424878 0.00274139 0.0518836 0.0453912 0.00270104 64 325 0 1.33378 -0.977777 0.0123297 0.000128854 
0.0396586 0.04953 0.0029554 0.0444761 0.0492855 0.00267416 229 202 0 -2.15228 0.106644 0.12557 0.000168185 
0.0444761 0.0492855 0.00267416 0.0487262 0.0517207 0.00254419 202 343 0 -1.11983 -0.623571 0.0350267 9.98942e-05 
0.0776124 0.0565216 0.00271826 0.0824197 0.0559934 0.00290859 161 365 0 -2.04006 0.224179 -0.0807874 0.000160033 
0.0199228 0.0572733 0.0026591 0.0197307 0.0622247 0.00285673 180 269 0 0.0203145 -0.52371 -0.0209033 4.08674e-05 
0.0309349 0.0590182 0.00256737 0.0338834 0.0628881 0.00278844 411 5 0 -1.00875 -1.324 -0.0756408 0.000129822 
0.0723526 0.0614291 0.00250853 0.0679508 0.0635858 0.00275709 314 303 0 1.05487 -0.527125 -0.0593789 9.19936e-05 
0.125996 0.0618441 0.00281212 0.12977 0.0648711 0.00252837 87 228 0 -1.53701 -1.23279 0.115585 0.000153781 
0.0679508 0.0635858 0.00275709 0.0694675 0.068223 0.00256926 303 110 0 -0.463904 -1.43211 0.0577171 0.000117376 
0.1163 0.0647169 0.00289985 0.120683 0.0670168 0.0028468 296 372 0 -0.569992 -0.299117 0.00689973 5.01568e-05 
0.00762133 0.0715991 0.0029063 0.00844144 0.0764512 0.00296728 360 332 0 -0.168278 -0.995598 -0.0125116 7.86775e-05 
0.102053 0.0707829 0.00292627 0.105359 0.0743152 0.00286499 169 352 0 -1.41607 -1.51297 0.0262545 0.000161475 
0.0249164 0.0718 0.00260985 0.0288557 0.0748028 0.00280526 320 404 0 -0.436591 -0.332791 -0.0216565 4.28051e-05 
0.0336557 0.0719589 0.00277071 0.0363911 0.0760659 0.00281023 390 99 0 -0.464182 -0.696931 -0.0067077 6.52445e-05 
0.0523762 0.0753995 0.00290223 0.0498608 0.0795421 0.00293631 79 221 0 1.02154 -1.68233 -0.0138434 0.000153356 
0.0819429 0.0764256 0.00279238 0.0867391 0.0754879 0.0026322 3 408 0 -1.38964 0.271696 0.0464144 0.000110382 
0.0698771 0.0798788 0.00258144 0.0747949 0.0803978 0.00289536 20 344 0 -0.572238 -0.0603932 -0.0365284 4.49231e-05 
0.00934786 0.086454 0.00277149 0.00757806 0.090959 0.0028636 106 97 0 0.745741 -1.89827 -0.0388226 0.000158937 
0.0536348 0.0859718 0.00298519 0.0552247 0.0905612 0.00286656 383 251 0 -0.600062 -1.71465 0.0440528 0.000141581 
0.127207 0.0854323 0.00280835 0.132141 0.0854988 0.00253691 91 280 0 -0.734254 -0.00989457 0.0403887 5.73003e-05 
0.0552247 0.0905612 0.00286656 0.0588578 0.0938061 0.00289889 251 388 0 -1.22652 -1.10639 -0.010465 0.000128699 
0.13041 0.0988378 0.00263521 0.134919 0.100762 0.00299901 86 397 0 -0.992904 -0.426365 -0.0797166 8.44204e-05 
0.10385 0.101138 0.00282466 0.0996596 0.103773 0.00267218 321 313 0 0.524499 -0.329758 0.0190874 4.82943e-05 
0.134919 0.100762 0.00299901 0.137445 0.104961 0.00274341 397 231 0 -0.612446 -1.01444 0.0614336 9.24507e-05 
0.0381237 0.103797 0.00251014 0.0380404 0.108757 0.00285536 57 1 0 0.00588894 -0.350488 -0.0243948 2.73777e-05 
0.0677962 0.109326 0.00290006 0.0679476 0.11416 0.00289492 147 374 0 -0.0657892 -2.10125 0.00223854 0.0001638 
0.136257 0.112855 0.00297214 0.140306 0.11564 0.00278276 208 189 0 -0.861289 -0.592495 0.0402831 8.15122e-05 
0.0357666 0.12514 0.00273842 0.0407427 0.124664 0.00269192 81 407 0 -0.0121829 0.00116728 0.000113859 9.53599e-07 
0.058506 0.124463 0.0027317 0.0598611 0.129263 0.00265878 151 148 0 -0.0401796 -0.142332 0.00216187 1.15242e-05 
0.0762687 0.1329 0.00258586 0.0800763 0.135988 0.00254687 300 348 0 -0.972935 -0.788987 0.00996317 9.76016e-05 
0.0306399 0.135326 0.00255073 0.0336188 0.139225 0.00271043 241 364 0 -0.70476 -0.922509 -0.0377839 9.04993e-05 
0.106426 0.135761 0.0025205 0.107056 0.140537 0.00294985 74 155 0 -0.273329 -2.073 -0.186411 0.000163562 
0.0215298 0.137609 0.00277362 0.0263205 0.138455 0.00251352 389 232 0 -1.61962 -0.285844 0.0879459 0.000128325 
